
     Program PWSCF v.6.4.1 starts on 29Aug2023 at 13:43:15 

     This program is part of the open-source Quantum ESPRESSO suite
     for quantum simulation of materials; please cite
         "P. Giannozzi et al., J. Phys.:Condens. Matter 21 395502 (2009);
         "P. Giannozzi et al., J. Phys.:Condens. Matter 29 465901 (2017);
          URL http://www.quantum-espresso.org", 
     in publications or presentations arising from this work. More details at
     http://www.quantum-espresso.org/quote

     Parallel version (MPI), running on     1 processors

     MPI processes distributed on     1 nodes
     Waiting for input...
     Reading input from standard input

     Current dimensions of program PWSCF are:
     Max number of different atomic species (ntypx) = 10
     Max number of k-points (npk) =  40000
     Max angular momentum in pseudopotentials (lmaxx) =  3

     Subspace diagonalization in iterative solution of the eigenvalue problem:
     a serial algorithm will be used


     G-vector sticks info
     --------------------
     sticks:   dense  smooth     PW     G-vecs:    dense   smooth      PW
     Sum         559     559    187                 8609     8609    1591



     bravais-lattice index     =            2
     lattice parameter (alat)  =      10.0000  a.u.
     unit-cell volume          =     250.0000 (a.u.)^3
     number of atoms/cell      =            2
     number of atomic types    =            1
     number of electrons       =         8.00
     number of Kohn-Sham states=            4
     kinetic-energy cutoff     =      40.0000  Ry
     charge density cutoff     =     160.0000  Ry
     convergence threshold     =      1.0E-06
     mixing beta               =       0.6000
     number of iterations used =            8  plain     mixing
     Exchange-correlation      = SLA PZ NOGX NOGC ( 1  1  0  0 0 0)

     celldm(1)=  10.000000  celldm(2)=   0.000000  celldm(3)=   0.000000
     celldm(4)=   0.000000  celldm(5)=   0.000000  celldm(6)=   0.000000

     crystal axes: (cart. coord. in units of alat)
               a(1) = (  -0.500000   0.000000   0.500000 )  
               a(2) = (   0.000000   0.500000   0.500000 )  
               a(3) = (  -0.500000   0.500000   0.000000 )  

     reciprocal axes: (cart. coord. in units 2 pi/alat)
               b(1) = ( -1.000000 -1.000000  1.000000 )  
               b(2) = (  1.000000  1.000000  1.000000 )  
               b(3) = ( -1.000000  1.000000 -1.000000 )  


     PseudoPot. # 1 for Si read from file:
     /home/meyn/q-e-qe-7.1/pseudo/Si.pz-vbc.UPF
     MD5 check sum: 9f25e6ff280f3123e9b3a84715b2e9c9
     Pseudo is Norm-conserving, Zval =  4.0
     Generated by new atomic code, or converted to UPF format
     Using radial grid of  431 points,  2 beta functions with: 
                l(1) =   0
                l(2) =   1

     atomic species   valence    mass     pseudopotential
        Si             4.00    28.08600     Si( 1.00)

     48 Sym. Ops., with inversion, found (24 have fractional translation)



   Cartesian axes

     site n.     atom                  positions (alat units)
         1           Si  tau(   1) = (   0.0000000   0.0000000   0.0000000  )
         2           Si  tau(   2) = (   0.2500000   0.2500000   0.2500000  )

     number of k points=    28
                       cart. coord. in units 2pi/alat
        k(    1) = (  -0.0833333   0.0833333   0.0833333), wk =   0.0185185
        k(    2) = (  -0.2500000   0.2500000  -0.0833333), wk =   0.0555556
        k(    3) = (  -0.4166667   0.4166667  -0.2500000), wk =   0.0555556
        k(    4) = (   0.4166667  -0.4166667   0.5833333), wk =   0.0555556
        k(    5) = (   0.2500000  -0.2500000   0.4166667), wk =   0.0555556
        k(    6) = (   0.0833333  -0.0833333   0.2500000), wk =   0.0555556
        k(    7) = (  -0.0833333   0.4166667   0.0833333), wk =   0.0555556
        k(    8) = (  -0.2500000   0.5833333  -0.0833333), wk =   0.1111111
        k(    9) = (   0.5833333  -0.2500000   0.7500000), wk =   0.1111111
        k(   10) = (   0.4166667  -0.0833333   0.5833333), wk =   0.1111111
        k(   11) = (   0.2500000   0.0833333   0.4166667), wk =   0.1111111
        k(   12) = (  -0.0833333   0.7500000   0.0833333), wk =   0.0555556
        k(   13) = (   0.7500000  -0.0833333   0.9166667), wk =   0.1111111
        k(   14) = (   0.5833333   0.0833333   0.7500000), wk =   0.1111111
        k(   15) = (   0.4166667   0.2500000   0.5833333), wk =   0.1111111
        k(   16) = (  -0.0833333  -0.9166667   0.0833333), wk =   0.0555556
        k(   17) = (  -0.2500000  -0.7500000  -0.0833333), wk =   0.1111111
        k(   18) = (  -0.0833333  -0.5833333   0.0833333), wk =   0.0555556
        k(   19) = (  -0.2500000   0.2500000   0.2500000), wk =   0.0185185
        k(   20) = (  -0.4166667   0.4166667   0.0833333), wk =   0.0555556
        k(   21) = (   0.4166667  -0.4166667   0.9166667), wk =   0.0555556
        k(   22) = (   0.2500000  -0.2500000   0.7500000), wk =   0.0555556
        k(   23) = (  -0.2500000   0.5833333   0.2500000), wk =   0.0555556
        k(   24) = (   0.5833333  -0.2500000   1.0833333), wk =   0.1111111
        k(   25) = (   0.4166667  -0.0833333   0.9166667), wk =   0.1111111
        k(   26) = (  -0.2500000  -1.0833333   0.2500000), wk =   0.0555556
        k(   27) = (  -0.4166667   0.4166667   0.4166667), wk =   0.0185185
        k(   28) = (   0.4166667  -0.4166667   1.2500000), wk =   0.0555556

     Dense  grid:     8609 G-vectors     FFT dimensions: (  32,  32,  32)

     Estimated max dynamical RAM per process >       8.52 MB

     Initial potential from superposition of free atoms

     starting charge    7.99901, renormalised to    8.00000
     Starting wfcs are    8 randomized atomic wfcs

     total cpu time spent up to now is        0.3 secs

     Self-consistent Calculation

     iteration #  1     ecut=    40.00 Ry     beta= 0.60
     Davidson diagonalization with overlap
     ethr =  1.00E-02,  avg # of iterations =  2.0

     Threshold (ethr) on eigenvalues was too large:
     Diagonalizing with lowered threshold

     Davidson diagonalization with overlap
     ethr =  8.79E-04,  avg # of iterations =  1.0

     total cpu time spent up to now is        0.8 secs

     total energy              =     -15.84742581 Ry
     Harris-Foulkes estimate   =     -15.86994645 Ry
     estimated scf accuracy    <       0.06846331 Ry

     iteration #  2     ecut=    40.00 Ry     beta= 0.60
     Davidson diagonalization with overlap
     ethr =  8.56E-04,  avg # of iterations =  1.0

     total cpu time spent up to now is        1.1 secs

     total energy              =     -15.84906438 Ry
     Harris-Foulkes estimate   =     -15.85040573 Ry
     estimated scf accuracy    <       0.00553018 Ry

     iteration #  3     ecut=    40.00 Ry     beta= 0.60
     Davidson diagonalization with overlap
     ethr =  6.91E-05,  avg # of iterations =  2.0

     total cpu time spent up to now is        1.3 secs

     total energy              =     -15.84981771 Ry
     Harris-Foulkes estimate   =     -15.84989592 Ry
     estimated scf accuracy    <       0.00018006 Ry

     iteration #  4     ecut=    40.00 Ry     beta= 0.60
     Davidson diagonalization with overlap
     ethr =  2.25E-06,  avg # of iterations =  2.2

     total cpu time spent up to now is        1.6 secs

     total energy              =     -15.84987106 Ry
     Harris-Foulkes estimate   =     -15.84989527 Ry
     estimated scf accuracy    <       0.00004755 Ry

     iteration #  5     ecut=    40.00 Ry     beta= 0.60
     Davidson diagonalization with overlap
     ethr =  5.94E-07,  avg # of iterations =  2.0

     total cpu time spent up to now is        2.0 secs

     End of self-consistent calculation

          k =-0.0833 0.0833 0.0833 (  1049 PWs)   bands (ev):

    -5.5035   6.0060   6.7160   6.7160

          k =-0.2500 0.2500-0.0833 (  1059 PWs)   bands (ev):

    -4.9920   3.8599   5.3811   6.5053

          k =-0.4167 0.4167-0.2500 (  1066 PWs)   bands (ev):

    -3.8061   0.9023   4.9142   5.8243

          k = 0.4167-0.4167 0.5833 (  1074 PWs)   bands (ev):

    -3.0185  -0.3584   5.0037   5.4092

          k = 0.2500-0.2500 0.4167 (  1071 PWs)   bands (ev):

    -4.2568   1.8141   5.4599   5.5401

          k = 0.0833-0.0833 0.2500 (  1047 PWs)   bands (ev):

    -5.2457   4.9272   6.0097   6.2506

          k =-0.0833 0.4167 0.0833 (  1060 PWs)   bands (ev):

    -4.7339   3.7360   5.2228   5.2393

          k =-0.2500 0.5833-0.0833 (  1061 PWs)   bands (ev):

    -3.7521   1.8031   3.7889   4.8119

          k = 0.5833-0.2500 0.7500 (  1071 PWs)   bands (ev):

    -2.5114  -0.1384   3.1734   4.5546

          k = 0.4167-0.0833 0.5833 (  1068 PWs)   bands (ev):

    -3.3186   1.0426   3.0887   5.0948

          k = 0.2500 0.0833 0.4167 (  1066 PWs)   bands (ev):

    -4.4900   2.8099   4.5460   5.8380

          k =-0.0833 0.7500 0.0833 (  1061 PWs)   bands (ev):

    -2.9917   0.9883   3.7322   4.1208

          k = 0.7500-0.0833 0.9167 (  1074 PWs)   bands (ev):

    -1.6909  -0.4361   2.7864   3.6578

          k = 0.5833 0.0833 0.7500 (  1077 PWs)   bands (ev):

    -2.0616  -0.1332   2.2709   4.2540

          k = 0.4167 0.2500 0.5833 (  1069 PWs)   bands (ev):

    -3.1836   0.2239   4.1651   5.2072

          k =-0.0833-0.9167 0.0833 (  1070 PWs)   bands (ev):

    -1.8039  -0.4519   3.4381   3.8906

          k =-0.2500-0.7500-0.0833 (  1069 PWs)   bands (ev):

    -2.8021   0.7388   3.1603   4.0250

          k =-0.0833-0.5833 0.0833 (  1058 PWs)   bands (ev):

    -3.9773   2.4197   4.3351   4.5726

          k =-0.2500 0.2500 0.2500 (  1074 PWs)   bands (ev):

    -4.7443   2.7982   6.0629   6.0629

          k =-0.4167 0.4167 0.0833 (  1068 PWs)   bands (ev):

    -4.0110   1.8714   3.7522   5.8896

          k = 0.4167-0.4167 0.9167 (  1072 PWs)   bands (ev):

    -2.7212   0.3720   2.5328   5.0315

          k = 0.2500-0.2500 0.7500 (  1076 PWs)   bands (ev):

    -2.6713   0.2897   3.0731   4.5053

          k =-0.2500 0.5833 0.2500 (  1070 PWs)   bands (ev):

    -3.5498   0.9908   4.3066   4.9077

          k = 0.5833-0.2500 1.0833 (  1070 PWs)   bands (ev):

    -2.4596   0.2971   2.6343   4.0100

          k = 0.4167-0.0833 0.9167 (  1069 PWs)   bands (ev):

    -1.5553  -0.4442   2.4189   3.2701

          k =-0.2500-1.0833 0.2500 (  1074 PWs)   bands (ev):

    -1.7786  -0.3760   2.2821   4.2959

          k =-0.4167 0.4167 0.4167 (  1062 PWs)   bands (ev):

    -3.4357   0.0808   5.6576   5.6576

          k = 0.4167-0.4167 1.2500 (  1076 PWs)   bands (ev):

    -2.7679  -0.2166   3.6999   5.1716

     highest occupied level (ev):     6.7160

!    total energy              =     -15.84987814 Ry
     Harris-Foulkes estimate   =     -15.84987846 Ry
     estimated scf accuracy    <       0.00000072 Ry

     The total energy is the sum of the following terms:

     one-electron contribution =       5.24063045 Ry
     hartree contribution      =       1.02981894 Ry
     xc contribution           =      -4.88257376 Ry
     ewald contribution        =     -17.23775378 Ry

     convergence has been achieved in   5 iterations

     Writing output data file silicon.save/

     init_run     :      0.23s CPU      0.23s WALL (       1 calls)
     electrons    :      1.61s CPU      1.66s WALL (       1 calls)

     Called by init_run:
     wfcinit      :      0.18s CPU      0.18s WALL (       1 calls)
     potinit      :      0.01s CPU      0.01s WALL (       1 calls)
     hinit0       :      0.04s CPU      0.04s WALL (       1 calls)

     Called by electrons:
     c_bands      :      1.32s CPU      1.35s WALL (       6 calls)
     sum_band     :      0.27s CPU      0.28s WALL (       6 calls)
     v_of_rho     :      0.01s CPU      0.02s WALL (       6 calls)
     mix_rho      :      0.00s CPU      0.01s WALL (       6 calls)

     Called by c_bands:
     init_us_2    :      0.08s CPU      0.09s WALL (     364 calls)
     cegterg      :      1.25s CPU      1.28s WALL (     168 calls)

     Called by sum_band:

     Called by *egterg:
     h_psi        :      1.20s CPU      1.23s WALL (     481 calls)
     g_psi        :      0.02s CPU      0.02s WALL (     285 calls)
     cdiaghg      :      0.03s CPU      0.03s WALL (     425 calls)

     Called by h_psi:
     h_psi:pot    :      1.20s CPU      1.22s WALL (     481 calls)
     h_psi:calbec :      0.05s CPU      0.05s WALL (     481 calls)
     vloc_psi     :      1.10s CPU      1.13s WALL (     481 calls)
     add_vuspsi   :      0.04s CPU      0.04s WALL (     481 calls)

     General routines
     calbec       :      0.05s CPU      0.05s WALL (     481 calls)
     fft          :      0.00s CPU      0.01s WALL (      18 calls)
     ffts         :      0.00s CPU      0.00s WALL (       6 calls)
     fftw         :      0.99s CPU      1.01s WALL (    4602 calls)

     Parallel routines

     PWSCF        :      2.00s CPU      2.05s WALL


   This run was terminated on:  13:43:18  29Aug2023            

=------------------------------------------------------------------------------=
   JOB DONE.
=------------------------------------------------------------------------------=
