
     Program PWSCF v.6.4.1 starts on 29Aug2023 at 13:43:11 

     This program is part of the open-source Quantum ESPRESSO suite
     for quantum simulation of materials; please cite
         "P. Giannozzi et al., J. Phys.:Condens. Matter 21 395502 (2009);
         "P. Giannozzi et al., J. Phys.:Condens. Matter 29 465901 (2017);
          URL http://www.quantum-espresso.org", 
     in publications or presentations arising from this work. More details at
     http://www.quantum-espresso.org/quote

     Parallel version (MPI), running on     1 processors

     MPI processes distributed on     1 nodes
     Waiting for input...
     Reading input from standard input

     Current dimensions of program PWSCF are:
     Max number of different atomic species (ntypx) = 10
     Max number of k-points (npk) =  40000
     Max angular momentum in pseudopotentials (lmaxx) =  3

     Subspace diagonalization in iterative solution of the eigenvalue problem:
     a serial algorithm will be used


     G-vector sticks info
     --------------------
     sticks:   dense  smooth     PW     G-vecs:    dense   smooth      PW
     Sum         421     421    139                 5577     5577    1067



     bravais-lattice index     =            2
     lattice parameter (alat)  =      10.0000  a.u.
     unit-cell volume          =     250.0000 (a.u.)^3
     number of atoms/cell      =            2
     number of atomic types    =            1
     number of electrons       =         8.00
     number of Kohn-Sham states=            4
     kinetic-energy cutoff     =      30.0000  Ry
     charge density cutoff     =     120.0000  Ry
     convergence threshold     =      1.0E-06
     mixing beta               =       0.6000
     number of iterations used =            8  plain     mixing
     Exchange-correlation      = SLA PZ NOGX NOGC ( 1  1  0  0 0 0)

     celldm(1)=  10.000000  celldm(2)=   0.000000  celldm(3)=   0.000000
     celldm(4)=   0.000000  celldm(5)=   0.000000  celldm(6)=   0.000000

     crystal axes: (cart. coord. in units of alat)
               a(1) = (  -0.500000   0.000000   0.500000 )  
               a(2) = (   0.000000   0.500000   0.500000 )  
               a(3) = (  -0.500000   0.500000   0.000000 )  

     reciprocal axes: (cart. coord. in units 2 pi/alat)
               b(1) = ( -1.000000 -1.000000  1.000000 )  
               b(2) = (  1.000000  1.000000  1.000000 )  
               b(3) = ( -1.000000  1.000000 -1.000000 )  


     PseudoPot. # 1 for Si read from file:
     /home/meyn/q-e-qe-7.1/pseudo/Si.pz-vbc.UPF
     MD5 check sum: 9f25e6ff280f3123e9b3a84715b2e9c9
     Pseudo is Norm-conserving, Zval =  4.0
     Generated by new atomic code, or converted to UPF format
     Using radial grid of  431 points,  2 beta functions with: 
                l(1) =   0
                l(2) =   1

     atomic species   valence    mass     pseudopotential
        Si             4.00    28.08600     Si( 1.00)

     48 Sym. Ops., with inversion, found (24 have fractional translation)



   Cartesian axes

     site n.     atom                  positions (alat units)
         1           Si  tau(   1) = (   0.0000000   0.0000000   0.0000000  )
         2           Si  tau(   2) = (   0.2500000   0.2500000   0.2500000  )

     number of k points=    28
                       cart. coord. in units 2pi/alat
        k(    1) = (  -0.0833333   0.0833333   0.0833333), wk =   0.0185185
        k(    2) = (  -0.2500000   0.2500000  -0.0833333), wk =   0.0555556
        k(    3) = (  -0.4166667   0.4166667  -0.2500000), wk =   0.0555556
        k(    4) = (   0.4166667  -0.4166667   0.5833333), wk =   0.0555556
        k(    5) = (   0.2500000  -0.2500000   0.4166667), wk =   0.0555556
        k(    6) = (   0.0833333  -0.0833333   0.2500000), wk =   0.0555556
        k(    7) = (  -0.0833333   0.4166667   0.0833333), wk =   0.0555556
        k(    8) = (  -0.2500000   0.5833333  -0.0833333), wk =   0.1111111
        k(    9) = (   0.5833333  -0.2500000   0.7500000), wk =   0.1111111
        k(   10) = (   0.4166667  -0.0833333   0.5833333), wk =   0.1111111
        k(   11) = (   0.2500000   0.0833333   0.4166667), wk =   0.1111111
        k(   12) = (  -0.0833333   0.7500000   0.0833333), wk =   0.0555556
        k(   13) = (   0.7500000  -0.0833333   0.9166667), wk =   0.1111111
        k(   14) = (   0.5833333   0.0833333   0.7500000), wk =   0.1111111
        k(   15) = (   0.4166667   0.2500000   0.5833333), wk =   0.1111111
        k(   16) = (  -0.0833333  -0.9166667   0.0833333), wk =   0.0555556
        k(   17) = (  -0.2500000  -0.7500000  -0.0833333), wk =   0.1111111
        k(   18) = (  -0.0833333  -0.5833333   0.0833333), wk =   0.0555556
        k(   19) = (  -0.2500000   0.2500000   0.2500000), wk =   0.0185185
        k(   20) = (  -0.4166667   0.4166667   0.0833333), wk =   0.0555556
        k(   21) = (   0.4166667  -0.4166667   0.9166667), wk =   0.0555556
        k(   22) = (   0.2500000  -0.2500000   0.7500000), wk =   0.0555556
        k(   23) = (  -0.2500000   0.5833333   0.2500000), wk =   0.0555556
        k(   24) = (   0.5833333  -0.2500000   1.0833333), wk =   0.1111111
        k(   25) = (   0.4166667  -0.0833333   0.9166667), wk =   0.1111111
        k(   26) = (  -0.2500000  -1.0833333   0.2500000), wk =   0.0555556
        k(   27) = (  -0.4166667   0.4166667   0.4166667), wk =   0.0185185
        k(   28) = (   0.4166667  -0.4166667   1.2500000), wk =   0.0555556

     Dense  grid:     5577 G-vectors     FFT dimensions: (  32,  32,  32)

     Estimated max dynamical RAM per process >       6.35 MB

     Initial potential from superposition of free atoms

     starting charge    7.99901, renormalised to    8.00000
     Starting wfcs are    8 randomized atomic wfcs

     total cpu time spent up to now is        0.2 secs

     Self-consistent Calculation

     iteration #  1     ecut=    30.00 Ry     beta= 0.60
     Davidson diagonalization with overlap
     ethr =  1.00E-02,  avg # of iterations =  2.0

     Threshold (ethr) on eigenvalues was too large:
     Diagonalizing with lowered threshold

     Davidson diagonalization with overlap
     ethr =  8.77E-04,  avg # of iterations =  1.0

     total cpu time spent up to now is        0.6 secs

     total energy              =     -15.84652865 Ry
     Harris-Foulkes estimate   =     -15.86898495 Ry
     estimated scf accuracy    <       0.06843099 Ry

     iteration #  2     ecut=    30.00 Ry     beta= 0.60
     Davidson diagonalization with overlap
     ethr =  8.55E-04,  avg # of iterations =  1.0

     total cpu time spent up to now is        0.9 secs

     total energy              =     -15.84815616 Ry
     Harris-Foulkes estimate   =     -15.84949181 Ry
     estimated scf accuracy    <       0.00553946 Ry

     iteration #  3     ecut=    30.00 Ry     beta= 0.60
     Davidson diagonalization with overlap
     ethr =  6.92E-05,  avg # of iterations =  2.0

     total cpu time spent up to now is        1.2 secs

     total energy              =     -15.84890242 Ry
     Harris-Foulkes estimate   =     -15.84897972 Ry
     estimated scf accuracy    <       0.00017795 Ry

     iteration #  4     ecut=    30.00 Ry     beta= 0.60
     Davidson diagonalization with overlap
     ethr =  2.22E-06,  avg # of iterations =  2.1

     total cpu time spent up to now is        1.5 secs

     total energy              =     -15.84895176 Ry
     Harris-Foulkes estimate   =     -15.84897479 Ry
     estimated scf accuracy    <       0.00004528 Ry

     iteration #  5     ecut=    30.00 Ry     beta= 0.60
     Davidson diagonalization with overlap
     ethr =  5.66E-07,  avg # of iterations =  2.0

     total cpu time spent up to now is        1.7 secs

     End of self-consistent calculation

          k =-0.0833 0.0833 0.0833 (   700 PWs)   bands (ev):

    -5.5029   6.0078   6.7170   6.7170

          k =-0.2500 0.2500-0.0833 (   688 PWs)   bands (ev):

    -4.9912   3.8617   5.3822   6.5062

          k =-0.4167 0.4167-0.2500 (   690 PWs)   bands (ev):

    -3.8051   0.9037   4.9153   5.8248

          k = 0.4167-0.4167 0.5833 (   695 PWs)   bands (ev):

    -3.0173  -0.3574   5.0049   5.4096

          k = 0.2500-0.2500 0.4167 (   695 PWs)   bands (ev):

    -4.2558   1.8156   5.4605   5.5413

          k = 0.0833-0.0833 0.2500 (   687 PWs)   bands (ev):

    -5.2449   4.9291   6.0106   6.2521

          k =-0.0833 0.4167 0.0833 (   688 PWs)   bands (ev):

    -4.7331   3.7381   5.2235   5.2404

          k =-0.2500 0.5833-0.0833 (   689 PWs)   bands (ev):

    -3.7511   1.8051   3.7898   4.8126

          k = 0.5833-0.2500 0.7500 (   695 PWs)   bands (ev):

    -2.5101  -0.1371   3.1745   4.5551

          k = 0.4167-0.0833 0.5833 (   692 PWs)   bands (ev):

    -3.3175   1.0443   3.0895   5.0955

          k = 0.2500 0.0833 0.4167 (   692 PWs)   bands (ev):

    -4.4891   2.8117   4.5469   5.8389

          k =-0.0833 0.7500 0.0833 (   690 PWs)   bands (ev):

    -2.9906   0.9904   3.7326   4.1211

          k = 0.7500-0.0833 0.9167 (   695 PWs)   bands (ev):

    -1.6895  -0.4343   2.7869   3.6582

          k = 0.5833 0.0833 0.7500 (   698 PWs)   bands (ev):

    -2.0602  -0.1316   2.2714   4.2544

          k = 0.4167 0.2500 0.5833 (   694 PWs)   bands (ev):

    -3.1824   0.2252   4.1663   5.2079

          k =-0.0833-0.9167 0.0833 (   698 PWs)   bands (ev):

    -1.8026  -0.4502   3.4384   3.8908

          k =-0.2500-0.7500-0.0833 (   694 PWs)   bands (ev):

    -2.8009   0.7408   3.1609   4.0254

          k =-0.0833-0.5833 0.0833 (   692 PWs)   bands (ev):

    -3.9764   2.4220   4.3358   4.5730

          k =-0.2500 0.2500 0.2500 (   691 PWs)   bands (ev):

    -4.7434   2.7998   6.0637   6.0637

          k =-0.4167 0.4167 0.0833 (   688 PWs)   bands (ev):

    -4.0100   1.8732   3.7532   5.8903

          k = 0.4167-0.4167 0.9167 (   690 PWs)   bands (ev):

    -2.7200   0.3736   2.5336   5.0320

          k = 0.2500-0.2500 0.7500 (   697 PWs)   bands (ev):

    -2.6700   0.2913   3.0739   4.5057

          k =-0.2500 0.5833 0.2500 (   694 PWs)   bands (ev):

    -3.5487   0.9923   4.3079   4.9081

          k = 0.5833-0.2500 1.0833 (   695 PWs)   bands (ev):

    -2.4584   0.2988   2.6350   4.0105

          k = 0.4167-0.0833 0.9167 (   700 PWs)   bands (ev):

    -1.5539  -0.4426   2.4194   3.2705

          k =-0.2500-1.0833 0.2500 (   699 PWs)   bands (ev):

    -1.7772  -0.3744   2.2825   4.2961

          k =-0.4167 0.4167 0.4167 (   685 PWs)   bands (ev):

    -3.4347   0.0819   5.6582   5.6582

          k = 0.4167-0.4167 1.2500 (   694 PWs)   bands (ev):

    -2.7666  -0.2155   3.7011   5.1721

     highest occupied level (ev):     6.7170

!    total energy              =     -15.84895840 Ry
     Harris-Foulkes estimate   =     -15.84895874 Ry
     estimated scf accuracy    <       0.00000071 Ry

     The total energy is the sum of the following terms:

     one-electron contribution =       5.24186714 Ry
     hartree contribution      =       1.02953704 Ry
     xc contribution           =      -4.88260881 Ry
     ewald contribution        =     -17.23775378 Ry

     convergence has been achieved in   5 iterations

     Writing output data file silicon.save/

     init_run     :      0.17s CPU      0.17s WALL (       1 calls)
     electrons    :      1.50s CPU      1.53s WALL (       1 calls)

     Called by init_run:
     wfcinit      :      0.14s CPU      0.14s WALL (       1 calls)
     potinit      :      0.00s CPU      0.00s WALL (       1 calls)
     hinit0       :      0.02s CPU      0.02s WALL (       1 calls)

     Called by electrons:
     c_bands      :      1.23s CPU      1.24s WALL (       6 calls)
     sum_band     :      0.25s CPU      0.25s WALL (       6 calls)
     v_of_rho     :      0.01s CPU      0.01s WALL (       6 calls)
     mix_rho      :      0.00s CPU      0.00s WALL (       6 calls)

     Called by c_bands:
     init_us_2    :      0.06s CPU      0.06s WALL (     364 calls)
     cegterg      :      1.17s CPU      1.19s WALL (     168 calls)

     Called by sum_band:

     Called by *egterg:
     h_psi        :      1.16s CPU      1.18s WALL (     479 calls)
     g_psi        :      0.01s CPU      0.01s WALL (     283 calls)
     cdiaghg      :      0.03s CPU      0.03s WALL (     423 calls)

     Called by h_psi:
     h_psi:pot    :      1.16s CPU      1.17s WALL (     479 calls)
     h_psi:calbec :      0.03s CPU      0.03s WALL (     479 calls)
     vloc_psi     :      1.10s CPU      1.11s WALL (     479 calls)
     add_vuspsi   :      0.03s CPU      0.03s WALL (     479 calls)

     General routines
     calbec       :      0.03s CPU      0.03s WALL (     479 calls)
     fft          :      0.00s CPU      0.00s WALL (      18 calls)
     ffts         :      0.00s CPU      0.00s WALL (       6 calls)
     fftw         :      0.97s CPU      0.97s WALL (    4600 calls)

     Parallel routines

     PWSCF        :      1.73s CPU      1.76s WALL


   This run was terminated on:  13:43:13  29Aug2023            

=------------------------------------------------------------------------------=
   JOB DONE.
=------------------------------------------------------------------------------=
