
     Program PWSCF v.6.4.1 starts on 29Aug2023 at 13:43: 9 

     This program is part of the open-source Quantum ESPRESSO suite
     for quantum simulation of materials; please cite
         "P. Giannozzi et al., J. Phys.:Condens. Matter 21 395502 (2009);
         "P. Giannozzi et al., J. Phys.:Condens. Matter 29 465901 (2017);
          URL http://www.quantum-espresso.org", 
     in publications or presentations arising from this work. More details at
     http://www.quantum-espresso.org/quote

     Parallel version (MPI), running on     1 processors

     MPI processes distributed on     1 nodes
     Waiting for input...
     Reading input from standard input

     Current dimensions of program PWSCF are:
     Max number of different atomic species (ntypx) = 10
     Max number of k-points (npk) =  40000
     Max angular momentum in pseudopotentials (lmaxx) =  3

     Subspace diagonalization in iterative solution of the eigenvalue problem:
     a serial algorithm will be used


     G-vector sticks info
     --------------------
     sticks:   dense  smooth     PW     G-vecs:    dense   smooth      PW
     Sum         271     271     97                 2975     2975     645



     bravais-lattice index     =            2
     lattice parameter (alat)  =      10.0000  a.u.
     unit-cell volume          =     250.0000 (a.u.)^3
     number of atoms/cell      =            2
     number of atomic types    =            1
     number of electrons       =         8.00
     number of Kohn-Sham states=            4
     kinetic-energy cutoff     =      20.0000  Ry
     charge density cutoff     =      80.0000  Ry
     convergence threshold     =      1.0E-06
     mixing beta               =       0.6000
     number of iterations used =            8  plain     mixing
     Exchange-correlation      = SLA PZ NOGX NOGC ( 1  1  0  0 0 0)

     celldm(1)=  10.000000  celldm(2)=   0.000000  celldm(3)=   0.000000
     celldm(4)=   0.000000  celldm(5)=   0.000000  celldm(6)=   0.000000

     crystal axes: (cart. coord. in units of alat)
               a(1) = (  -0.500000   0.000000   0.500000 )  
               a(2) = (   0.000000   0.500000   0.500000 )  
               a(3) = (  -0.500000   0.500000   0.000000 )  

     reciprocal axes: (cart. coord. in units 2 pi/alat)
               b(1) = ( -1.000000 -1.000000  1.000000 )  
               b(2) = (  1.000000  1.000000  1.000000 )  
               b(3) = ( -1.000000  1.000000 -1.000000 )  


     PseudoPot. # 1 for Si read from file:
     /home/meyn/q-e-qe-7.1/pseudo/Si.pz-vbc.UPF
     MD5 check sum: 9f25e6ff280f3123e9b3a84715b2e9c9
     Pseudo is Norm-conserving, Zval =  4.0
     Generated by new atomic code, or converted to UPF format
     Using radial grid of  431 points,  2 beta functions with: 
                l(1) =   0
                l(2) =   1

     atomic species   valence    mass     pseudopotential
        Si             4.00    28.08600     Si( 1.00)

     48 Sym. Ops., with inversion, found (24 have fractional translation)



   Cartesian axes

     site n.     atom                  positions (alat units)
         1           Si  tau(   1) = (   0.0000000   0.0000000   0.0000000  )
         2           Si  tau(   2) = (   0.2500000   0.2500000   0.2500000  )

     number of k points=    28
                       cart. coord. in units 2pi/alat
        k(    1) = (  -0.0833333   0.0833333   0.0833333), wk =   0.0185185
        k(    2) = (  -0.2500000   0.2500000  -0.0833333), wk =   0.0555556
        k(    3) = (  -0.4166667   0.4166667  -0.2500000), wk =   0.0555556
        k(    4) = (   0.4166667  -0.4166667   0.5833333), wk =   0.0555556
        k(    5) = (   0.2500000  -0.2500000   0.4166667), wk =   0.0555556
        k(    6) = (   0.0833333  -0.0833333   0.2500000), wk =   0.0555556
        k(    7) = (  -0.0833333   0.4166667   0.0833333), wk =   0.0555556
        k(    8) = (  -0.2500000   0.5833333  -0.0833333), wk =   0.1111111
        k(    9) = (   0.5833333  -0.2500000   0.7500000), wk =   0.1111111
        k(   10) = (   0.4166667  -0.0833333   0.5833333), wk =   0.1111111
        k(   11) = (   0.2500000   0.0833333   0.4166667), wk =   0.1111111
        k(   12) = (  -0.0833333   0.7500000   0.0833333), wk =   0.0555556
        k(   13) = (   0.7500000  -0.0833333   0.9166667), wk =   0.1111111
        k(   14) = (   0.5833333   0.0833333   0.7500000), wk =   0.1111111
        k(   15) = (   0.4166667   0.2500000   0.5833333), wk =   0.1111111
        k(   16) = (  -0.0833333  -0.9166667   0.0833333), wk =   0.0555556
        k(   17) = (  -0.2500000  -0.7500000  -0.0833333), wk =   0.1111111
        k(   18) = (  -0.0833333  -0.5833333   0.0833333), wk =   0.0555556
        k(   19) = (  -0.2500000   0.2500000   0.2500000), wk =   0.0185185
        k(   20) = (  -0.4166667   0.4166667   0.0833333), wk =   0.0555556
        k(   21) = (   0.4166667  -0.4166667   0.9166667), wk =   0.0555556
        k(   22) = (   0.2500000  -0.2500000   0.7500000), wk =   0.0555556
        k(   23) = (  -0.2500000   0.5833333   0.2500000), wk =   0.0555556
        k(   24) = (   0.5833333  -0.2500000   1.0833333), wk =   0.1111111
        k(   25) = (   0.4166667  -0.0833333   0.9166667), wk =   0.1111111
        k(   26) = (  -0.2500000  -1.0833333   0.2500000), wk =   0.0555556
        k(   27) = (  -0.4166667   0.4166667   0.4166667), wk =   0.0185185
        k(   28) = (   0.4166667  -0.4166667   1.2500000), wk =   0.0555556

     Dense  grid:     2975 G-vectors     FFT dimensions: (  24,  24,  24)

     Estimated max dynamical RAM per process >       3.20 MB

     Initial potential from superposition of free atoms

     starting charge    7.99901, renormalised to    8.00000
     Starting wfcs are    8 randomized atomic wfcs

     total cpu time spent up to now is        0.1 secs

     Self-consistent Calculation

     iteration #  1     ecut=    20.00 Ry     beta= 0.60
     Davidson diagonalization with overlap
     ethr =  1.00E-02,  avg # of iterations =  2.0

     Threshold (ethr) on eigenvalues was too large:
     Diagonalizing with lowered threshold

     Davidson diagonalization with overlap
     ethr =  8.63E-04,  avg # of iterations =  1.0

     total cpu time spent up to now is        0.3 secs

     total energy              =     -15.84178636 Ry
     Harris-Foulkes estimate   =     -15.86423423 Ry
     estimated scf accuracy    <       0.06806628 Ry

     iteration #  2     ecut=    20.00 Ry     beta= 0.60
     Davidson diagonalization with overlap
     ethr =  8.51E-04,  avg # of iterations =  1.0

     total cpu time spent up to now is        0.4 secs

     total energy              =     -15.84341991 Ry
     Harris-Foulkes estimate   =     -15.84475272 Ry
     estimated scf accuracy    <       0.00549374 Ry

     iteration #  3     ecut=    20.00 Ry     beta= 0.60
     Davidson diagonalization with overlap
     ethr =  6.87E-05,  avg # of iterations =  2.0

     total cpu time spent up to now is        0.4 secs

     total energy              =     -15.84416161 Ry
     Harris-Foulkes estimate   =     -15.84423942 Ry
     estimated scf accuracy    <       0.00017420 Ry

     iteration #  4     ecut=    20.00 Ry     beta= 0.60
     Davidson diagonalization with overlap
     ethr =  2.18E-06,  avg # of iterations =  2.1

     total cpu time spent up to now is        0.5 secs

     total energy              =     -15.84420709 Ry
     Harris-Foulkes estimate   =     -15.84422751 Ry
     estimated scf accuracy    <       0.00004060 Ry

     iteration #  5     ecut=    20.00 Ry     beta= 0.60
     Davidson diagonalization with overlap
     ethr =  5.08E-07,  avg # of iterations =  2.0

     total cpu time spent up to now is        0.7 secs

     End of self-consistent calculation

          k =-0.0833 0.0833 0.0833 (   363 PWs)   bands (ev):

    -5.4987   6.0214   6.7351   6.7351

          k =-0.2500 0.2500-0.0833 (   366 PWs)   bands (ev):

    -4.9870   3.8703   5.3936   6.5212

          k =-0.4167 0.4167-0.2500 (   374 PWs)   bands (ev):

    -3.8012   0.9083   4.9244   5.8357

          k = 0.4167-0.4167 0.5833 (   378 PWs)   bands (ev):

    -3.0125  -0.3548   5.0139   5.4193

          k = 0.2500-0.2500 0.4167 (   375 PWs)   bands (ev):

    -4.2522   1.8215   5.4706   5.5521

          k = 0.0833-0.0833 0.2500 (   370 PWs)   bands (ev):

    -5.2410   4.9399   6.0231   6.2663

          k =-0.0833 0.4167 0.0833 (   368 PWs)   bands (ev):

    -4.7287   3.7471   5.2338   5.2508

          k =-0.2500 0.5833-0.0833 (   376 PWs)   bands (ev):

    -3.7473   1.8110   3.7967   4.8211

          k = 0.5833-0.2500 0.7500 (   378 PWs)   bands (ev):

    -2.5055  -0.1334   3.1805   4.5625

          k = 0.4167-0.0833 0.5833 (   381 PWs)   bands (ev):

    -3.3138   1.0488   3.0953   5.1039

          k = 0.2500 0.0833 0.4167 (   375 PWs)   bands (ev):

    -4.4855   2.8187   4.5556   5.8501

          k =-0.0833 0.7500 0.0833 (   375 PWs)   bands (ev):

    -2.9864   0.9970   3.7387   4.1271

          k = 0.7500-0.0833 0.9167 (   378 PWs)   bands (ev):

    -1.6843  -0.4291   2.7916   3.6639

          k = 0.5833 0.0833 0.7500 (   382 PWs)   bands (ev):

    -2.0556  -0.1274   2.2759   4.2613

          k = 0.4167 0.2500 0.5833 (   377 PWs)   bands (ev):

    -3.1785   0.2290   4.1741   5.2170

          k =-0.0833-0.9167 0.0833 (   375 PWs)   bands (ev):

    -1.7973  -0.4447   3.4439   3.8962

          k =-0.2500-0.7500-0.0833 (   384 PWs)   bands (ev):

    -2.7973   0.7459   3.1663   4.0318

          k =-0.0833-0.5833 0.0833 (   370 PWs)   bands (ev):

    -3.9723   2.4300   4.3438   4.5806

          k =-0.2500 0.2500 0.2500 (   368 PWs)   bands (ev):

    -4.7396   2.8069   6.0765   6.0765

          k =-0.4167 0.4167 0.0833 (   375 PWs)   bands (ev):

    -4.0066   1.8789   3.7604   5.9015

          k = 0.4167-0.4167 0.9167 (   382 PWs)   bands (ev):

    -2.7160   0.3776   2.5386   5.0394

          k = 0.2500-0.2500 0.7500 (   377 PWs)   bands (ev):

    -2.6653   0.2962   3.0798   4.5122

          k =-0.2500 0.5833 0.2500 (   378 PWs)   bands (ev):

    -3.5451   0.9972   4.3165   4.9160

          k = 0.5833-0.2500 1.0833 (   383 PWs)   bands (ev):

    -2.4541   0.3031   2.6398   4.0175

          k = 0.4167-0.0833 0.9167 (   383 PWs)   bands (ev):

    -1.5492  -0.4378   2.4235   3.2760

          k =-0.2500-1.0833 0.2500 (   382 PWs)   bands (ev):

    -1.7724  -0.3700   2.2867   4.3027

          k =-0.4167 0.4167 0.4167 (   374 PWs)   bands (ev):

    -3.4302   0.0851   5.6690   5.6690

          k = 0.4167-0.4167 1.2500 (   379 PWs)   bands (ev):

    -2.7621  -0.2124   3.7080   5.1803

     highest occupied level (ev):     6.7351

!    total energy              =     -15.84421273 Ry
     Harris-Foulkes estimate   =     -15.84421303 Ry
     estimated scf accuracy    <       0.00000059 Ry

     The total energy is the sum of the following terms:

     one-electron contribution =       5.24667093 Ry
     hartree contribution      =       1.02815594 Ry
     xc contribution           =      -4.88128581 Ry
     ewald contribution        =     -17.23775378 Ry

     convergence has been achieved in   5 iterations

     Writing output data file silicon.save/

     init_run     :      0.08s CPU      0.08s WALL (       1 calls)
     electrons    :      0.54s CPU      0.54s WALL (       1 calls)

     Called by init_run:
     wfcinit      :      0.06s CPU      0.06s WALL (       1 calls)
     potinit      :      0.00s CPU      0.00s WALL (       1 calls)
     hinit0       :      0.02s CPU      0.02s WALL (       1 calls)

     Called by electrons:
     c_bands      :      0.44s CPU      0.44s WALL (       6 calls)
     sum_band     :      0.09s CPU      0.09s WALL (       6 calls)
     v_of_rho     :      0.00s CPU      0.00s WALL (       6 calls)
     mix_rho      :      0.00s CPU      0.00s WALL (       6 calls)

     Called by c_bands:
     init_us_2    :      0.02s CPU      0.02s WALL (     364 calls)
     cegterg      :      0.43s CPU      0.43s WALL (     168 calls)

     Called by sum_band:

     Called by *egterg:
     h_psi        :      0.43s CPU      0.43s WALL (     479 calls)
     g_psi        :      0.00s CPU      0.00s WALL (     283 calls)
     cdiaghg      :      0.01s CPU      0.01s WALL (     423 calls)

     Called by h_psi:
     h_psi:pot    :      0.43s CPU      0.43s WALL (     479 calls)
     h_psi:calbec :      0.01s CPU      0.01s WALL (     479 calls)
     vloc_psi     :      0.40s CPU      0.40s WALL (     479 calls)
     add_vuspsi   :      0.01s CPU      0.01s WALL (     479 calls)

     General routines
     calbec       :      0.01s CPU      0.01s WALL (     479 calls)
     fft          :      0.01s CPU      0.01s WALL (      18 calls)
     ffts         :      0.00s CPU      0.00s WALL (       6 calls)
     fftw         :      0.40s CPU      0.40s WALL (    4590 calls)

     Parallel routines

     PWSCF        :      0.66s CPU      0.66s WALL


   This run was terminated on:  13:43:10  29Aug2023            

=------------------------------------------------------------------------------=
   JOB DONE.
=------------------------------------------------------------------------------=
