
     Program PWSCF v.6.4.1 starts on 29Aug2023 at 13:43: 8 

     This program is part of the open-source Quantum ESPRESSO suite
     for quantum simulation of materials; please cite
         "P. Giannozzi et al., J. Phys.:Condens. Matter 21 395502 (2009);
         "P. Giannozzi et al., J. Phys.:Condens. Matter 29 465901 (2017);
          URL http://www.quantum-espresso.org", 
     in publications or presentations arising from this work. More details at
     http://www.quantum-espresso.org/quote

     Parallel version (MPI), running on     1 processors

     MPI processes distributed on     1 nodes
     Waiting for input...
     Reading input from standard input

     Current dimensions of program PWSCF are:
     Max number of different atomic species (ntypx) = 10
     Max number of k-points (npk) =  40000
     Max angular momentum in pseudopotentials (lmaxx) =  3

     Subspace diagonalization in iterative solution of the eigenvalue problem:
     a serial algorithm will be used


     G-vector sticks info
     --------------------
     sticks:   dense  smooth     PW     G-vecs:    dense   smooth      PW
     Sum         139     139     55                 1067     1067     283



     bravais-lattice index     =            2
     lattice parameter (alat)  =      10.0000  a.u.
     unit-cell volume          =     250.0000 (a.u.)^3
     number of atoms/cell      =            2
     number of atomic types    =            1
     number of electrons       =         8.00
     number of Kohn-Sham states=            4
     kinetic-energy cutoff     =      10.0000  Ry
     charge density cutoff     =      40.0000  Ry
     convergence threshold     =      1.0E-06
     mixing beta               =       0.6000
     number of iterations used =            8  plain     mixing
     Exchange-correlation      = SLA PZ NOGX NOGC ( 1  1  0  0 0 0)

     celldm(1)=  10.000000  celldm(2)=   0.000000  celldm(3)=   0.000000
     celldm(4)=   0.000000  celldm(5)=   0.000000  celldm(6)=   0.000000

     crystal axes: (cart. coord. in units of alat)
               a(1) = (  -0.500000   0.000000   0.500000 )  
               a(2) = (   0.000000   0.500000   0.500000 )  
               a(3) = (  -0.500000   0.500000   0.000000 )  

     reciprocal axes: (cart. coord. in units 2 pi/alat)
               b(1) = ( -1.000000 -1.000000  1.000000 )  
               b(2) = (  1.000000  1.000000  1.000000 )  
               b(3) = ( -1.000000  1.000000 -1.000000 )  


     PseudoPot. # 1 for Si read from file:
     /home/meyn/q-e-qe-7.1/pseudo/Si.pz-vbc.UPF
     MD5 check sum: 9f25e6ff280f3123e9b3a84715b2e9c9
     Pseudo is Norm-conserving, Zval =  4.0
     Generated by new atomic code, or converted to UPF format
     Using radial grid of  431 points,  2 beta functions with: 
                l(1) =   0
                l(2) =   1

     atomic species   valence    mass     pseudopotential
        Si             4.00    28.08600     Si( 1.00)

     48 Sym. Ops., with inversion, found (24 have fractional translation)



   Cartesian axes

     site n.     atom                  positions (alat units)
         1           Si  tau(   1) = (   0.0000000   0.0000000   0.0000000  )
         2           Si  tau(   2) = (   0.2500000   0.2500000   0.2500000  )

     number of k points=    28
                       cart. coord. in units 2pi/alat
        k(    1) = (  -0.0833333   0.0833333   0.0833333), wk =   0.0185185
        k(    2) = (  -0.2500000   0.2500000  -0.0833333), wk =   0.0555556
        k(    3) = (  -0.4166667   0.4166667  -0.2500000), wk =   0.0555556
        k(    4) = (   0.4166667  -0.4166667   0.5833333), wk =   0.0555556
        k(    5) = (   0.2500000  -0.2500000   0.4166667), wk =   0.0555556
        k(    6) = (   0.0833333  -0.0833333   0.2500000), wk =   0.0555556
        k(    7) = (  -0.0833333   0.4166667   0.0833333), wk =   0.0555556
        k(    8) = (  -0.2500000   0.5833333  -0.0833333), wk =   0.1111111
        k(    9) = (   0.5833333  -0.2500000   0.7500000), wk =   0.1111111
        k(   10) = (   0.4166667  -0.0833333   0.5833333), wk =   0.1111111
        k(   11) = (   0.2500000   0.0833333   0.4166667), wk =   0.1111111
        k(   12) = (  -0.0833333   0.7500000   0.0833333), wk =   0.0555556
        k(   13) = (   0.7500000  -0.0833333   0.9166667), wk =   0.1111111
        k(   14) = (   0.5833333   0.0833333   0.7500000), wk =   0.1111111
        k(   15) = (   0.4166667   0.2500000   0.5833333), wk =   0.1111111
        k(   16) = (  -0.0833333  -0.9166667   0.0833333), wk =   0.0555556
        k(   17) = (  -0.2500000  -0.7500000  -0.0833333), wk =   0.1111111
        k(   18) = (  -0.0833333  -0.5833333   0.0833333), wk =   0.0555556
        k(   19) = (  -0.2500000   0.2500000   0.2500000), wk =   0.0185185
        k(   20) = (  -0.4166667   0.4166667   0.0833333), wk =   0.0555556
        k(   21) = (   0.4166667  -0.4166667   0.9166667), wk =   0.0555556
        k(   22) = (   0.2500000  -0.2500000   0.7500000), wk =   0.0555556
        k(   23) = (  -0.2500000   0.5833333   0.2500000), wk =   0.0555556
        k(   24) = (   0.5833333  -0.2500000   1.0833333), wk =   0.1111111
        k(   25) = (   0.4166667  -0.0833333   0.9166667), wk =   0.1111111
        k(   26) = (  -0.2500000  -1.0833333   0.2500000), wk =   0.0555556
        k(   27) = (  -0.4166667   0.4166667   0.4166667), wk =   0.0185185
        k(   28) = (   0.4166667  -0.4166667   1.2500000), wk =   0.0555556

     Dense  grid:     1067 G-vectors     FFT dimensions: (  16,  16,  16)

     Estimated max dynamical RAM per process >       1.13 MB

     Initial potential from superposition of free atoms

     starting charge    7.99901, renormalised to    8.00000
     Starting wfcs are    8 randomized atomic wfcs

     total cpu time spent up to now is        0.1 secs

     Self-consistent Calculation

     iteration #  1     ecut=    10.00 Ry     beta= 0.60
     Davidson diagonalization with overlap
     ethr =  1.00E-02,  avg # of iterations =  2.0

     Threshold (ethr) on eigenvalues was too large:
     Diagonalizing with lowered threshold

     Davidson diagonalization with overlap
     ethr =  7.90E-04,  avg # of iterations =  1.0

     total cpu time spent up to now is        0.2 secs

     total energy              =     -15.76644663 Ry
     Harris-Foulkes estimate   =     -15.78563043 Ry
     estimated scf accuracy    <       0.06335670 Ry

     iteration #  2     ecut=    10.00 Ry     beta= 0.60
     Davidson diagonalization with overlap
     ethr =  7.92E-04,  avg # of iterations =  1.0

     total cpu time spent up to now is        0.2 secs

     total energy              =     -15.76805971 Ry
     Harris-Foulkes estimate   =     -15.76914071 Ry
     estimated scf accuracy    <       0.00525205 Ry

     iteration #  3     ecut=    10.00 Ry     beta= 0.60
     Davidson diagonalization with overlap
     ethr =  6.57E-05,  avg # of iterations =  2.0

     total cpu time spent up to now is        0.2 secs

     total energy              =     -15.76874909 Ry
     Harris-Foulkes estimate   =     -15.76880755 Ry
     estimated scf accuracy    <       0.00015234 Ry

     iteration #  4     ecut=    10.00 Ry     beta= 0.60
     Davidson diagonalization with overlap
     ethr =  1.90E-06,  avg # of iterations =  2.1

     total cpu time spent up to now is        0.2 secs

     total energy              =     -15.76878475 Ry
     Harris-Foulkes estimate   =     -15.76879729 Ry
     estimated scf accuracy    <       0.00002720 Ry

     iteration #  5     ecut=    10.00 Ry     beta= 0.60
     Davidson diagonalization with overlap
     ethr =  3.40E-07,  avg # of iterations =  2.0

     total cpu time spent up to now is        0.3 secs

     End of self-consistent calculation

          k =-0.0833 0.0833 0.0833 (   134 PWs)   bands (ev):

    -5.2944   6.1017   6.7871   6.7871

          k =-0.2500 0.2500-0.0833 (   140 PWs)   bands (ev):

    -4.7932   3.9539   5.4378   6.5677

          k =-0.4167 0.4167-0.2500 (   138 PWs)   bands (ev):

    -3.6067   1.0009   4.9687   5.8671

          k = 0.4167-0.4167 0.5833 (   131 PWs)   bands (ev):

    -2.7949  -0.2547   5.0732   5.4447

          k = 0.2500-0.2500 0.4167 (   140 PWs)   bands (ev):

    -4.0577   1.9071   5.4980   5.6083

          k = 0.0833-0.0833 0.2500 (   134 PWs)   bands (ev):

    -5.0245   5.0293   6.0701   6.3310

          k =-0.0833 0.4167 0.0833 (   134 PWs)   bands (ev):

    -4.5152   3.8576   5.2650   5.3017

          k =-0.2500 0.5833-0.0833 (   136 PWs)   bands (ev):

    -3.5551   1.9399   3.8350   4.8488

          k = 0.5833-0.2500 0.7500 (   132 PWs)   bands (ev):

    -2.2908  -0.0052   3.2390   4.5830

          k = 0.4167-0.0833 0.5833 (   134 PWs)   bands (ev):

    -3.1156   1.1842   3.1361   5.1334

          k = 0.2500 0.0833 0.4167 (   137 PWs)   bands (ev):

    -4.2839   2.9210   4.5977   5.8953

          k =-0.0833 0.7500 0.0833 (   131 PWs)   bands (ev):

    -2.7838   1.1626   3.7563   4.1390

          k = 0.7500-0.0833 0.9167 (   129 PWs)   bands (ev):

    -1.4802  -0.2340   2.8079   3.6801

          k = 0.5833 0.0833 0.7500 (   131 PWs)   bands (ev):

    -1.8462   0.0484   2.3020   4.2822

          k = 0.4167 0.2500 0.5833 (   135 PWs)   bands (ev):

    -2.9785   0.3325   4.2347   5.2424

          k =-0.0833-0.9167 0.0833 (   129 PWs)   bands (ev):

    -1.5996  -0.2563   3.4576   3.9046

          k =-0.2500-0.7500-0.0833 (   131 PWs)   bands (ev):

    -2.5986   0.9198   3.1923   4.0491

          k =-0.0833-0.5833 0.0833 (   133 PWs)   bands (ev):

    -3.7629   2.5703   4.3741   4.6006

          k =-0.2500 0.2500 0.2500 (   138 PWs)   bands (ev):

    -4.5367   2.8977   6.1187   6.1187

          k =-0.4167 0.4167 0.0833 (   136 PWs)   bands (ev):

    -3.8072   1.9895   3.8028   5.9346

          k = 0.4167-0.4167 0.9167 (   131 PWs)   bands (ev):

    -2.5019   0.5259   2.5762   5.0623

          k = 0.2500-0.2500 0.7500 (   132 PWs)   bands (ev):

    -2.4725   0.4498   3.1252   4.5281

          k =-0.2500 0.5833 0.2500 (   136 PWs)   bands (ev):

    -3.3462   1.1050   4.3756   4.9386

          k = 0.5833-0.2500 1.0833 (   132 PWs)   bands (ev):

    -2.2528   0.4710   2.6722   4.0380

          k = 0.4167-0.0833 0.9167 (   130 PWs)   bands (ev):

    -1.3426  -0.2327   2.4388   3.2934

          k =-0.2500-1.0833 0.2500 (   130 PWs)   bands (ev):

    -1.5575  -0.1865   2.3021   4.3161

          k =-0.4167 0.4167 0.4167 (   135 PWs)   bands (ev):

    -3.2510   0.1797   5.6930   5.6930

          k = 0.4167-0.4167 1.2500 (   131 PWs)   bands (ev):

    -2.5415  -0.1006   3.7766   5.2046

     highest occupied level (ev):     6.7871

!    total energy              =     -15.76878827 Ry
     Harris-Foulkes estimate   =     -15.76878840 Ry
     estimated scf accuracy    <       0.00000027 Ry

     The total energy is the sum of the following terms:

     one-electron contribution =       5.32565600 Ry
     hartree contribution      =       1.00747311 Ry
     xc contribution           =      -4.86416363 Ry
     ewald contribution        =     -17.23775375 Ry

     convergence has been achieved in   5 iterations

     Writing output data file silicon.save/

     init_run     :      0.02s CPU      0.06s WALL (       1 calls)
     electrons    :      0.12s CPU      0.13s WALL (       1 calls)

     Called by init_run:
     wfcinit      :      0.01s CPU      0.03s WALL (       1 calls)
     potinit      :      0.00s CPU      0.00s WALL (       1 calls)
     hinit0       :      0.01s CPU      0.02s WALL (       1 calls)

     Called by electrons:
     c_bands      :      0.10s CPU      0.10s WALL (       6 calls)
     sum_band     :      0.02s CPU      0.02s WALL (       6 calls)
     v_of_rho     :      0.00s CPU      0.00s WALL (       6 calls)
     mix_rho      :      0.00s CPU      0.00s WALL (       6 calls)

     Called by c_bands:
     init_us_2    :      0.01s CPU      0.01s WALL (     364 calls)
     cegterg      :      0.10s CPU      0.10s WALL (     168 calls)

     Called by sum_band:

     Called by *egterg:
     h_psi        :      0.08s CPU      0.08s WALL (     479 calls)
     g_psi        :      0.00s CPU      0.00s WALL (     283 calls)
     cdiaghg      :      0.01s CPU      0.02s WALL (     423 calls)

     Called by h_psi:
     h_psi:pot    :      0.08s CPU      0.08s WALL (     479 calls)
     h_psi:calbec :      0.00s CPU      0.01s WALL (     479 calls)
     vloc_psi     :      0.07s CPU      0.07s WALL (     479 calls)
     add_vuspsi   :      0.00s CPU      0.00s WALL (     479 calls)

     General routines
     calbec       :      0.00s CPU      0.00s WALL (     479 calls)
     fft          :      0.00s CPU      0.01s WALL (      18 calls)
     ffts         :      0.00s CPU      0.00s WALL (       6 calls)
     fftw         :      0.06s CPU      0.06s WALL (    4562 calls)

     Parallel routines

     PWSCF        :      0.19s CPU      0.29s WALL


   This run was terminated on:  13:43: 8  29Aug2023            

=------------------------------------------------------------------------------=
   JOB DONE.
=------------------------------------------------------------------------------=
