
     Program PWSCF v.6.4.1 starts on 29Aug2023 at 13:43:13 

     This program is part of the open-source Quantum ESPRESSO suite
     for quantum simulation of materials; please cite
         "P. Giannozzi et al., J. Phys.:Condens. Matter 21 395502 (2009);
         "P. Giannozzi et al., J. Phys.:Condens. Matter 29 465901 (2017);
          URL http://www.quantum-espresso.org", 
     in publications or presentations arising from this work. More details at
     http://www.quantum-espresso.org/quote

     Parallel version (MPI), running on     1 processors

     MPI processes distributed on     1 nodes
     Waiting for input...
     Reading input from standard input

     Current dimensions of program PWSCF are:
     Max number of different atomic species (ntypx) = 10
     Max number of k-points (npk) =  40000
     Max angular momentum in pseudopotentials (lmaxx) =  3

     Subspace diagonalization in iterative solution of the eigenvalue problem:
     a serial algorithm will be used


     G-vector sticks info
     --------------------
     sticks:   dense  smooth     PW     G-vecs:    dense   smooth      PW
     Sum         475     475    163                 6879     6879    1363



     bravais-lattice index     =            2
     lattice parameter (alat)  =      10.0000  a.u.
     unit-cell volume          =     250.0000 (a.u.)^3
     number of atoms/cell      =            2
     number of atomic types    =            1
     number of electrons       =         8.00
     number of Kohn-Sham states=            4
     kinetic-energy cutoff     =      35.0000  Ry
     charge density cutoff     =     140.0000  Ry
     convergence threshold     =      1.0E-06
     mixing beta               =       0.6000
     number of iterations used =            8  plain     mixing
     Exchange-correlation      = SLA PZ NOGX NOGC ( 1  1  0  0 0 0)

     celldm(1)=  10.000000  celldm(2)=   0.000000  celldm(3)=   0.000000
     celldm(4)=   0.000000  celldm(5)=   0.000000  celldm(6)=   0.000000

     crystal axes: (cart. coord. in units of alat)
               a(1) = (  -0.500000   0.000000   0.500000 )  
               a(2) = (   0.000000   0.500000   0.500000 )  
               a(3) = (  -0.500000   0.500000   0.000000 )  

     reciprocal axes: (cart. coord. in units 2 pi/alat)
               b(1) = ( -1.000000 -1.000000  1.000000 )  
               b(2) = (  1.000000  1.000000  1.000000 )  
               b(3) = ( -1.000000  1.000000 -1.000000 )  


     PseudoPot. # 1 for Si read from file:
     /home/meyn/q-e-qe-7.1/pseudo/Si.pz-vbc.UPF
     MD5 check sum: 9f25e6ff280f3123e9b3a84715b2e9c9
     Pseudo is Norm-conserving, Zval =  4.0
     Generated by new atomic code, or converted to UPF format
     Using radial grid of  431 points,  2 beta functions with: 
                l(1) =   0
                l(2) =   1

     atomic species   valence    mass     pseudopotential
        Si             4.00    28.08600     Si( 1.00)

     48 Sym. Ops., with inversion, found (24 have fractional translation)



   Cartesian axes

     site n.     atom                  positions (alat units)
         1           Si  tau(   1) = (   0.0000000   0.0000000   0.0000000  )
         2           Si  tau(   2) = (   0.2500000   0.2500000   0.2500000  )

     number of k points=    28
                       cart. coord. in units 2pi/alat
        k(    1) = (  -0.0833333   0.0833333   0.0833333), wk =   0.0185185
        k(    2) = (  -0.2500000   0.2500000  -0.0833333), wk =   0.0555556
        k(    3) = (  -0.4166667   0.4166667  -0.2500000), wk =   0.0555556
        k(    4) = (   0.4166667  -0.4166667   0.5833333), wk =   0.0555556
        k(    5) = (   0.2500000  -0.2500000   0.4166667), wk =   0.0555556
        k(    6) = (   0.0833333  -0.0833333   0.2500000), wk =   0.0555556
        k(    7) = (  -0.0833333   0.4166667   0.0833333), wk =   0.0555556
        k(    8) = (  -0.2500000   0.5833333  -0.0833333), wk =   0.1111111
        k(    9) = (   0.5833333  -0.2500000   0.7500000), wk =   0.1111111
        k(   10) = (   0.4166667  -0.0833333   0.5833333), wk =   0.1111111
        k(   11) = (   0.2500000   0.0833333   0.4166667), wk =   0.1111111
        k(   12) = (  -0.0833333   0.7500000   0.0833333), wk =   0.0555556
        k(   13) = (   0.7500000  -0.0833333   0.9166667), wk =   0.1111111
        k(   14) = (   0.5833333   0.0833333   0.7500000), wk =   0.1111111
        k(   15) = (   0.4166667   0.2500000   0.5833333), wk =   0.1111111
        k(   16) = (  -0.0833333  -0.9166667   0.0833333), wk =   0.0555556
        k(   17) = (  -0.2500000  -0.7500000  -0.0833333), wk =   0.1111111
        k(   18) = (  -0.0833333  -0.5833333   0.0833333), wk =   0.0555556
        k(   19) = (  -0.2500000   0.2500000   0.2500000), wk =   0.0185185
        k(   20) = (  -0.4166667   0.4166667   0.0833333), wk =   0.0555556
        k(   21) = (   0.4166667  -0.4166667   0.9166667), wk =   0.0555556
        k(   22) = (   0.2500000  -0.2500000   0.7500000), wk =   0.0555556
        k(   23) = (  -0.2500000   0.5833333   0.2500000), wk =   0.0555556
        k(   24) = (   0.5833333  -0.2500000   1.0833333), wk =   0.1111111
        k(   25) = (   0.4166667  -0.0833333   0.9166667), wk =   0.1111111
        k(   26) = (  -0.2500000  -1.0833333   0.2500000), wk =   0.0555556
        k(   27) = (  -0.4166667   0.4166667   0.4166667), wk =   0.0185185
        k(   28) = (   0.4166667  -0.4166667   1.2500000), wk =   0.0555556

     Dense  grid:     6879 G-vectors     FFT dimensions: (  32,  32,  32)

     Estimated max dynamical RAM per process >       7.33 MB

     Initial potential from superposition of free atoms

     starting charge    7.99901, renormalised to    8.00000
     Starting wfcs are    8 randomized atomic wfcs

     total cpu time spent up to now is        0.3 secs

     Self-consistent Calculation

     iteration #  1     ecut=    35.00 Ry     beta= 0.60
     Davidson diagonalization with overlap
     ethr =  1.00E-02,  avg # of iterations =  2.0

     Threshold (ethr) on eigenvalues was too large:
     Diagonalizing with lowered threshold

     Davidson diagonalization with overlap
     ethr =  8.78E-04,  avg # of iterations =  1.0

     total cpu time spent up to now is        0.9 secs

     total energy              =     -15.84710248 Ry
     Harris-Foulkes estimate   =     -15.86958627 Ry
     estimated scf accuracy    <       0.06844134 Ry

     iteration #  2     ecut=    35.00 Ry     beta= 0.60
     Davidson diagonalization with overlap
     ethr =  8.56E-04,  avg # of iterations =  1.0

     total cpu time spent up to now is        1.2 secs

     total energy              =     -15.84873195 Ry
     Harris-Foulkes estimate   =     -15.85007174 Ry
     estimated scf accuracy    <       0.00553608 Ry

     iteration #  3     ecut=    35.00 Ry     beta= 0.60
     Davidson diagonalization with overlap
     ethr =  6.92E-05,  avg # of iterations =  2.0

     total cpu time spent up to now is        1.4 secs

     total energy              =     -15.84948496 Ry
     Harris-Foulkes estimate   =     -15.84956299 Ry
     estimated scf accuracy    <       0.00017941 Ry

     iteration #  4     ecut=    35.00 Ry     beta= 0.60
     Davidson diagonalization with overlap
     ethr =  2.24E-06,  avg # of iterations =  2.1

     total cpu time spent up to now is        1.8 secs

     total energy              =     -15.84953635 Ry
     Harris-Foulkes estimate   =     -15.84956035 Ry
     estimated scf accuracy    <       0.00004718 Ry

     iteration #  5     ecut=    35.00 Ry     beta= 0.60
     Davidson diagonalization with overlap
     ethr =  5.90E-07,  avg # of iterations =  2.0

     total cpu time spent up to now is        2.2 secs

     End of self-consistent calculation

          k =-0.0833 0.0833 0.0833 (   881 PWs)   bands (ev):

    -5.5031   6.0063   6.7162   6.7162

          k =-0.2500 0.2500-0.0833 (   893 PWs)   bands (ev):

    -4.9915   3.8603   5.3812   6.5054

          k =-0.4167 0.4167-0.2500 (   874 PWs)   bands (ev):

    -3.8055   0.9028   4.9144   5.8243

          k = 0.4167-0.4167 0.5833 (   867 PWs)   bands (ev):

    -3.0178  -0.3580   5.0040   5.4092

          k = 0.2500-0.2500 0.4167 (   875 PWs)   bands (ev):

    -4.2562   1.8146   5.4600   5.5404

          k = 0.0833-0.0833 0.2500 (   894 PWs)   bands (ev):

    -5.2452   4.9275   6.0097   6.2508

          k =-0.0833 0.4167 0.0833 (   874 PWs)   bands (ev):

    -4.7334   3.7366   5.2229   5.2395

          k =-0.2500 0.5833-0.0833 (   869 PWs)   bands (ev):

    -3.7515   1.8037   3.7891   4.8120

          k = 0.5833-0.2500 0.7500 (   871 PWs)   bands (ev):

    -2.5107  -0.1379   3.1736   4.5546

          k = 0.4167-0.0833 0.5833 (   872 PWs)   bands (ev):

    -3.3179   1.0431   3.0888   5.0949

          k = 0.2500 0.0833 0.4167 (   873 PWs)   bands (ev):

    -4.4895   2.8104   4.5461   5.8382

          k =-0.0833 0.7500 0.0833 (   871 PWs)   bands (ev):

    -2.9911   0.9890   3.7322   4.1207

          k = 0.7500-0.0833 0.9167 (   873 PWs)   bands (ev):

    -1.6901  -0.4354   2.7864   3.6578

          k = 0.5833 0.0833 0.7500 (   873 PWs)   bands (ev):

    -2.0609  -0.1326   2.2709   4.2540

          k = 0.4167 0.2500 0.5833 (   876 PWs)   bands (ev):

    -3.1829   0.2243   4.1653   5.2073

          k =-0.0833-0.9167 0.0833 (   873 PWs)   bands (ev):

    -1.8032  -0.4512   3.4381   3.8906

          k =-0.2500-0.7500-0.0833 (   876 PWs)   bands (ev):

    -2.8015   0.7395   3.1603   4.0250

          k =-0.0833-0.5833 0.0833 (   864 PWs)   bands (ev):

    -3.9767   2.4205   4.3352   4.5725

          k =-0.2500 0.2500 0.2500 (   881 PWs)   bands (ev):

    -4.7438   2.7987   6.0630   6.0630

          k =-0.4167 0.4167 0.0833 (   874 PWs)   bands (ev):

    -4.0104   1.8718   3.7524   5.8897

          k = 0.4167-0.4167 0.9167 (   869 PWs)   bands (ev):

    -2.7205   0.3726   2.5330   5.0315

          k = 0.2500-0.2500 0.7500 (   866 PWs)   bands (ev):

    -2.6705   0.2904   3.0733   4.5052

          k =-0.2500 0.5833 0.2500 (   876 PWs)   bands (ev):

    -3.5491   0.9913   4.3069   4.9077

          k = 0.5833-0.2500 1.0833 (   871 PWs)   bands (ev):

    -2.4589   0.2977   2.6344   4.0100

          k = 0.4167-0.0833 0.9167 (   874 PWs)   bands (ev):

    -1.5546  -0.4436   2.4189   3.2701

          k =-0.2500-1.0833 0.2500 (   876 PWs)   bands (ev):

    -1.7779  -0.3753   2.2821   4.2958

          k =-0.4167 0.4167 0.4167 (   869 PWs)   bands (ev):

    -3.4351   0.0812   5.6576   5.6576

          k = 0.4167-0.4167 1.2500 (   868 PWs)   bands (ev):

    -2.7672  -0.2161   3.7001   5.1716

     highest occupied level (ev):     6.7162

!    total energy              =     -15.84954336 Ry
     Harris-Foulkes estimate   =     -15.84954368 Ry
     estimated scf accuracy    <       0.00000070 Ry

     The total energy is the sum of the following terms:

     one-electron contribution =       5.24110555 Ry
     hartree contribution      =       1.02971164 Ry
     xc contribution           =      -4.88260679 Ry
     ewald contribution        =     -17.23775377 Ry

     convergence has been achieved in   5 iterations

     Writing output data file silicon.save/

     init_run     :      0.21s CPU      0.21s WALL (       1 calls)
     electrons    :      1.86s CPU      1.90s WALL (       1 calls)

     Called by init_run:
     wfcinit      :      0.17s CPU      0.17s WALL (       1 calls)
     potinit      :      0.00s CPU      0.00s WALL (       1 calls)
     hinit0       :      0.03s CPU      0.03s WALL (       1 calls)

     Called by electrons:
     c_bands      :      1.52s CPU      1.54s WALL (       6 calls)
     sum_band     :      0.32s CPU      0.33s WALL (       6 calls)
     v_of_rho     :      0.01s CPU      0.02s WALL (       6 calls)
     mix_rho      :      0.00s CPU      0.01s WALL (       6 calls)

     Called by c_bands:
     init_us_2    :      0.08s CPU      0.08s WALL (     364 calls)
     cegterg      :      1.45s CPU      1.47s WALL (     168 calls)

     Called by sum_band:

     Called by *egterg:
     h_psi        :      1.38s CPU      1.41s WALL (     479 calls)
     g_psi        :      0.01s CPU      0.01s WALL (     283 calls)
     cdiaghg      :      0.04s CPU      0.04s WALL (     423 calls)

     Called by h_psi:
     h_psi:pot    :      1.38s CPU      1.40s WALL (     479 calls)
     h_psi:calbec :      0.05s CPU      0.05s WALL (     479 calls)
     vloc_psi     :      1.27s CPU      1.29s WALL (     479 calls)
     add_vuspsi   :      0.05s CPU      0.05s WALL (     479 calls)

     General routines
     calbec       :      0.05s CPU      0.05s WALL (     479 calls)
     fft          :      0.00s CPU      0.01s WALL (      18 calls)
     ffts         :      0.00s CPU      0.00s WALL (       6 calls)
     fftw         :      1.13s CPU      1.15s WALL (    4600 calls)

     Parallel routines

     PWSCF        :      2.15s CPU      2.19s WALL


   This run was terminated on:  13:43:15  29Aug2023            

=------------------------------------------------------------------------------=
   JOB DONE.
=------------------------------------------------------------------------------=
