
     Program PWSCF v.6.4.1 starts on 29Aug2023 at 13:43:10 

     This program is part of the open-source Quantum ESPRESSO suite
     for quantum simulation of materials; please cite
         "P. Giannozzi et al., J. Phys.:Condens. Matter 21 395502 (2009);
         "P. Giannozzi et al., J. Phys.:Condens. Matter 29 465901 (2017);
          URL http://www.quantum-espresso.org", 
     in publications or presentations arising from this work. More details at
     http://www.quantum-espresso.org/quote

     Parallel version (MPI), running on     1 processors

     MPI processes distributed on     1 nodes
     Waiting for input...
     Reading input from standard input

     Current dimensions of program PWSCF are:
     Max number of different atomic species (ntypx) = 10
     Max number of k-points (npk) =  40000
     Max angular momentum in pseudopotentials (lmaxx) =  3

     Subspace diagonalization in iterative solution of the eigenvalue problem:
     a serial algorithm will be used


     G-vector sticks info
     --------------------
     sticks:   dense  smooth     PW     G-vecs:    dense   smooth      PW
     Sum         349     349    121                 4279     4279     869



     bravais-lattice index     =            2
     lattice parameter (alat)  =      10.0000  a.u.
     unit-cell volume          =     250.0000 (a.u.)^3
     number of atoms/cell      =            2
     number of atomic types    =            1
     number of electrons       =         8.00
     number of Kohn-Sham states=            4
     kinetic-energy cutoff     =      25.0000  Ry
     charge density cutoff     =     100.0000  Ry
     convergence threshold     =      1.0E-06
     mixing beta               =       0.6000
     number of iterations used =            8  plain     mixing
     Exchange-correlation      = SLA PZ NOGX NOGC ( 1  1  0  0 0 0)

     celldm(1)=  10.000000  celldm(2)=   0.000000  celldm(3)=   0.000000
     celldm(4)=   0.000000  celldm(5)=   0.000000  celldm(6)=   0.000000

     crystal axes: (cart. coord. in units of alat)
               a(1) = (  -0.500000   0.000000   0.500000 )  
               a(2) = (   0.000000   0.500000   0.500000 )  
               a(3) = (  -0.500000   0.500000   0.000000 )  

     reciprocal axes: (cart. coord. in units 2 pi/alat)
               b(1) = ( -1.000000 -1.000000  1.000000 )  
               b(2) = (  1.000000  1.000000  1.000000 )  
               b(3) = ( -1.000000  1.000000 -1.000000 )  


     PseudoPot. # 1 for Si read from file:
     /home/meyn/q-e-qe-7.1/pseudo/Si.pz-vbc.UPF
     MD5 check sum: 9f25e6ff280f3123e9b3a84715b2e9c9
     Pseudo is Norm-conserving, Zval =  4.0
     Generated by new atomic code, or converted to UPF format
     Using radial grid of  431 points,  2 beta functions with: 
                l(1) =   0
                l(2) =   1

     atomic species   valence    mass     pseudopotential
        Si             4.00    28.08600     Si( 1.00)

     48 Sym. Ops., with inversion, found (24 have fractional translation)



   Cartesian axes

     site n.     atom                  positions (alat units)
         1           Si  tau(   1) = (   0.0000000   0.0000000   0.0000000  )
         2           Si  tau(   2) = (   0.2500000   0.2500000   0.2500000  )

     number of k points=    28
                       cart. coord. in units 2pi/alat
        k(    1) = (  -0.0833333   0.0833333   0.0833333), wk =   0.0185185
        k(    2) = (  -0.2500000   0.2500000  -0.0833333), wk =   0.0555556
        k(    3) = (  -0.4166667   0.4166667  -0.2500000), wk =   0.0555556
        k(    4) = (   0.4166667  -0.4166667   0.5833333), wk =   0.0555556
        k(    5) = (   0.2500000  -0.2500000   0.4166667), wk =   0.0555556
        k(    6) = (   0.0833333  -0.0833333   0.2500000), wk =   0.0555556
        k(    7) = (  -0.0833333   0.4166667   0.0833333), wk =   0.0555556
        k(    8) = (  -0.2500000   0.5833333  -0.0833333), wk =   0.1111111
        k(    9) = (   0.5833333  -0.2500000   0.7500000), wk =   0.1111111
        k(   10) = (   0.4166667  -0.0833333   0.5833333), wk =   0.1111111
        k(   11) = (   0.2500000   0.0833333   0.4166667), wk =   0.1111111
        k(   12) = (  -0.0833333   0.7500000   0.0833333), wk =   0.0555556
        k(   13) = (   0.7500000  -0.0833333   0.9166667), wk =   0.1111111
        k(   14) = (   0.5833333   0.0833333   0.7500000), wk =   0.1111111
        k(   15) = (   0.4166667   0.2500000   0.5833333), wk =   0.1111111
        k(   16) = (  -0.0833333  -0.9166667   0.0833333), wk =   0.0555556
        k(   17) = (  -0.2500000  -0.7500000  -0.0833333), wk =   0.1111111
        k(   18) = (  -0.0833333  -0.5833333   0.0833333), wk =   0.0555556
        k(   19) = (  -0.2500000   0.2500000   0.2500000), wk =   0.0185185
        k(   20) = (  -0.4166667   0.4166667   0.0833333), wk =   0.0555556
        k(   21) = (   0.4166667  -0.4166667   0.9166667), wk =   0.0555556
        k(   22) = (   0.2500000  -0.2500000   0.7500000), wk =   0.0555556
        k(   23) = (  -0.2500000   0.5833333   0.2500000), wk =   0.0555556
        k(   24) = (   0.5833333  -0.2500000   1.0833333), wk =   0.1111111
        k(   25) = (   0.4166667  -0.0833333   0.9166667), wk =   0.1111111
        k(   26) = (  -0.2500000  -1.0833333   0.2500000), wk =   0.0555556
        k(   27) = (  -0.4166667   0.4166667   0.4166667), wk =   0.0185185
        k(   28) = (   0.4166667  -0.4166667   1.2500000), wk =   0.0555556

     Dense  grid:     4279 G-vectors     FFT dimensions: (  24,  24,  24)

     Estimated max dynamical RAM per process >       4.11 MB

     Initial potential from superposition of free atoms

     starting charge    7.99901, renormalised to    8.00000
     Starting wfcs are    8 randomized atomic wfcs

     total cpu time spent up to now is        0.1 secs

     Self-consistent Calculation

     iteration #  1     ecut=    25.00 Ry     beta= 0.60
     Davidson diagonalization with overlap
     ethr =  1.00E-02,  avg # of iterations =  2.0

     Threshold (ethr) on eigenvalues was too large:
     Diagonalizing with lowered threshold

     Davidson diagonalization with overlap
     ethr =  8.74E-04,  avg # of iterations =  1.0

     total cpu time spent up to now is        0.3 secs

     total energy              =     -15.84547243 Ry
     Harris-Foulkes estimate   =     -15.86793751 Ry
     estimated scf accuracy    <       0.06838716 Ry

     iteration #  2     ecut=    25.00 Ry     beta= 0.60
     Davidson diagonalization with overlap
     ethr =  8.55E-04,  avg # of iterations =  1.0

     total cpu time spent up to now is        0.4 secs

     total energy              =     -15.84711326 Ry
     Harris-Foulkes estimate   =     -15.84844460 Ry
     estimated scf accuracy    <       0.00552445 Ry

     iteration #  3     ecut=    25.00 Ry     beta= 0.60
     Davidson diagonalization with overlap
     ethr =  6.91E-05,  avg # of iterations =  2.0

     total cpu time spent up to now is        0.5 secs

     total energy              =     -15.84785791 Ry
     Harris-Foulkes estimate   =     -15.84793517 Ry
     estimated scf accuracy    <       0.00017638 Ry

     iteration #  4     ecut=    25.00 Ry     beta= 0.60
     Davidson diagonalization with overlap
     ethr =  2.20E-06,  avg # of iterations =  2.1

     total cpu time spent up to now is        0.6 secs

     total energy              =     -15.84790491 Ry
     Harris-Foulkes estimate   =     -15.84792671 Ry
     estimated scf accuracy    <       0.00004302 Ry

     iteration #  5     ecut=    25.00 Ry     beta= 0.60
     Davidson diagonalization with overlap
     ethr =  5.38E-07,  avg # of iterations =  2.0

     total cpu time spent up to now is        0.7 secs

     End of self-consistent calculation

          k =-0.0833 0.0833 0.0833 (   534 PWs)   bands (ev):

    -5.5033   6.0101   6.7202   6.7202

          k =-0.2500 0.2500-0.0833 (   534 PWs)   bands (ev):

    -4.9915   3.8636   5.3842   6.5092

          k =-0.4167 0.4167-0.2500 (   527 PWs)   bands (ev):

    -3.8052   0.9049   4.9177   5.8275

          k = 0.4167-0.4167 0.5833 (   535 PWs)   bands (ev):

    -3.0175  -0.3566   5.0070   5.4119

          k = 0.2500-0.2500 0.4167 (   531 PWs)   bands (ev):

    -4.2560   1.8170   5.4625   5.5437

          k = 0.0833-0.0833 0.2500 (   535 PWs)   bands (ev):

    -5.2453   4.9308   6.0126   6.2545

          k =-0.0833 0.4167 0.0833 (   536 PWs)   bands (ev):

    -4.7334   3.7400   5.2252   5.2425

          k =-0.2500 0.5833-0.0833 (   529 PWs)   bands (ev):

    -3.7512   1.8061   3.7916   4.8144

          k = 0.5833-0.2500 0.7500 (   531 PWs)   bands (ev):

    -2.5101  -0.1364   3.1758   4.5569

          k = 0.4167-0.0833 0.5833 (   528 PWs)   bands (ev):

    -3.3176   1.0453   3.0910   5.0975

          k = 0.2500 0.0833 0.4167 (   531 PWs)   bands (ev):

    -4.4894   2.8131   4.5491   5.8413

          k =-0.0833 0.7500 0.0833 (   529 PWs)   bands (ev):

    -2.9906   0.9911   3.7344   4.1228

          k = 0.7500-0.0833 0.9167 (   519 PWs)   bands (ev):

    -1.6891  -0.4338   2.7884   3.6599

          k = 0.5833 0.0833 0.7500 (   522 PWs)   bands (ev):

    -2.0601  -0.1310   2.2728   4.2562

          k = 0.4167 0.2500 0.5833 (   530 PWs)   bands (ev):

    -3.1825   0.2261   4.1682   5.2098

          k =-0.0833-0.9167 0.0833 (   520 PWs)   bands (ev):

    -1.8023  -0.4496   3.4400   3.8928

          k =-0.2500-0.7500-0.0833 (   526 PWs)   bands (ev):

    -2.8009   0.7415   3.1624   4.0272

          k =-0.0833-0.5833 0.0833 (   530 PWs)   bands (ev):

    -3.9765   2.4232   4.3378   4.5748

          k =-0.2500 0.2500 0.2500 (   531 PWs)   bands (ev):

    -4.7437   2.8015   6.0660   6.0660

          k =-0.4167 0.4167 0.0833 (   526 PWs)   bands (ev):

    -4.0102   1.8743   3.7551   5.8927

          k = 0.4167-0.4167 0.9167 (   530 PWs)   bands (ev):

    -2.7201   0.3742   2.5349   5.0337

          k = 0.2500-0.2500 0.7500 (   529 PWs)   bands (ev):

    -2.6700   0.2921   3.0753   4.5076

          k =-0.2500 0.5833 0.2500 (   531 PWs)   bands (ev):

    -3.5488   0.9934   4.3097   4.9100

          k = 0.5833-0.2500 1.0833 (   526 PWs)   bands (ev):

    -2.4582   0.2995   2.6364   4.0124

          k = 0.4167-0.0833 0.9167 (   521 PWs)   bands (ev):

    -1.5535  -0.4421   2.4208   3.2723

          k =-0.2500-1.0833 0.2500 (   524 PWs)   bands (ev):

    -1.7770  -0.3738   2.2839   4.2977

          k =-0.4167 0.4167 0.4167 (   529 PWs)   bands (ev):

    -3.4348   0.0828   5.6604   5.6604

          k = 0.4167-0.4167 1.2500 (   527 PWs)   bands (ev):

    -2.7667  -0.2147   3.7028   5.1743

     highest occupied level (ev):     6.7202

!    total energy              =     -15.84791103 Ry
     Harris-Foulkes estimate   =     -15.84791135 Ry
     estimated scf accuracy    <       0.00000066 Ry

     The total energy is the sum of the following terms:

     one-electron contribution =       5.24303800 Ry
     hartree contribution      =       1.02912858 Ry
     xc contribution           =      -4.88232385 Ry
     ewald contribution        =     -17.23775376 Ry

     convergence has been achieved in   5 iterations

     Writing output data file silicon.save/

     init_run     :      0.08s CPU      0.09s WALL (       1 calls)
     electrons    :      0.55s CPU      0.56s WALL (       1 calls)

     Called by init_run:
     wfcinit      :      0.05s CPU      0.06s WALL (       1 calls)
     potinit      :      0.00s CPU      0.00s WALL (       1 calls)
     hinit0       :      0.02s CPU      0.02s WALL (       1 calls)

     Called by electrons:
     c_bands      :      0.45s CPU      0.46s WALL (       6 calls)
     sum_band     :      0.09s CPU      0.09s WALL (       6 calls)
     v_of_rho     :      0.00s CPU      0.00s WALL (       6 calls)
     mix_rho      :      0.00s CPU      0.00s WALL (       6 calls)

     Called by c_bands:
     init_us_2    :      0.02s CPU      0.02s WALL (     364 calls)
     cegterg      :      0.43s CPU      0.44s WALL (     168 calls)

     Called by sum_band:

     Called by *egterg:
     h_psi        :      0.42s CPU      0.44s WALL (     479 calls)
     g_psi        :      0.00s CPU      0.00s WALL (     283 calls)
     cdiaghg      :      0.01s CPU      0.01s WALL (     423 calls)

     Called by h_psi:
     h_psi:pot    :      0.42s CPU      0.43s WALL (     479 calls)
     h_psi:calbec :      0.01s CPU      0.01s WALL (     479 calls)
     vloc_psi     :      0.39s CPU      0.41s WALL (     479 calls)
     add_vuspsi   :      0.01s CPU      0.01s WALL (     479 calls)

     General routines
     calbec       :      0.01s CPU      0.01s WALL (     479 calls)
     fft          :      0.01s CPU      0.01s WALL (      18 calls)
     ffts         :      0.00s CPU      0.00s WALL (       6 calls)
     fftw         :      0.39s CPU      0.40s WALL (    4598 calls)

     Parallel routines

     PWSCF        :      0.67s CPU      0.69s WALL


   This run was terminated on:  13:43:11  29Aug2023            

=------------------------------------------------------------------------------=
   JOB DONE.
=------------------------------------------------------------------------------=
