
     Program PWSCF v.6.4.1 starts on 29Aug2023 at 13:43: 8 

     This program is part of the open-source Quantum ESPRESSO suite
     for quantum simulation of materials; please cite
         "P. Giannozzi et al., J. Phys.:Condens. Matter 21 395502 (2009);
         "P. Giannozzi et al., J. Phys.:Condens. Matter 29 465901 (2017);
          URL http://www.quantum-espresso.org", 
     in publications or presentations arising from this work. More details at
     http://www.quantum-espresso.org/quote

     Parallel version (MPI), running on     1 processors

     MPI processes distributed on     1 nodes
     Waiting for input...
     Reading input from standard input

     Current dimensions of program PWSCF are:
     Max number of different atomic species (ntypx) = 10
     Max number of k-points (npk) =  40000
     Max angular momentum in pseudopotentials (lmaxx) =  3

     Subspace diagonalization in iterative solution of the eigenvalue problem:
     a serial algorithm will be used


     G-vector sticks info
     --------------------
     sticks:   dense  smooth     PW     G-vecs:    dense   smooth      PW
     Sum         199     199     85                 1917     1917     459



     bravais-lattice index     =            2
     lattice parameter (alat)  =      10.0000  a.u.
     unit-cell volume          =     250.0000 (a.u.)^3
     number of atoms/cell      =            2
     number of atomic types    =            1
     number of electrons       =         8.00
     number of Kohn-Sham states=            4
     kinetic-energy cutoff     =      15.0000  Ry
     charge density cutoff     =      60.0000  Ry
     convergence threshold     =      1.0E-06
     mixing beta               =       0.6000
     number of iterations used =            8  plain     mixing
     Exchange-correlation      = SLA PZ NOGX NOGC ( 1  1  0  0 0 0)

     celldm(1)=  10.000000  celldm(2)=   0.000000  celldm(3)=   0.000000
     celldm(4)=   0.000000  celldm(5)=   0.000000  celldm(6)=   0.000000

     crystal axes: (cart. coord. in units of alat)
               a(1) = (  -0.500000   0.000000   0.500000 )  
               a(2) = (   0.000000   0.500000   0.500000 )  
               a(3) = (  -0.500000   0.500000   0.000000 )  

     reciprocal axes: (cart. coord. in units 2 pi/alat)
               b(1) = ( -1.000000 -1.000000  1.000000 )  
               b(2) = (  1.000000  1.000000  1.000000 )  
               b(3) = ( -1.000000  1.000000 -1.000000 )  


     PseudoPot. # 1 for Si read from file:
     /home/meyn/q-e-qe-7.1/pseudo/Si.pz-vbc.UPF
     MD5 check sum: 9f25e6ff280f3123e9b3a84715b2e9c9
     Pseudo is Norm-conserving, Zval =  4.0
     Generated by new atomic code, or converted to UPF format
     Using radial grid of  431 points,  2 beta functions with: 
                l(1) =   0
                l(2) =   1

     atomic species   valence    mass     pseudopotential
        Si             4.00    28.08600     Si( 1.00)

     48 Sym. Ops., with inversion, found (24 have fractional translation)



   Cartesian axes

     site n.     atom                  positions (alat units)
         1           Si  tau(   1) = (   0.0000000   0.0000000   0.0000000  )
         2           Si  tau(   2) = (   0.2500000   0.2500000   0.2500000  )

     number of k points=    28
                       cart. coord. in units 2pi/alat
        k(    1) = (  -0.0833333   0.0833333   0.0833333), wk =   0.0185185
        k(    2) = (  -0.2500000   0.2500000  -0.0833333), wk =   0.0555556
        k(    3) = (  -0.4166667   0.4166667  -0.2500000), wk =   0.0555556
        k(    4) = (   0.4166667  -0.4166667   0.5833333), wk =   0.0555556
        k(    5) = (   0.2500000  -0.2500000   0.4166667), wk =   0.0555556
        k(    6) = (   0.0833333  -0.0833333   0.2500000), wk =   0.0555556
        k(    7) = (  -0.0833333   0.4166667   0.0833333), wk =   0.0555556
        k(    8) = (  -0.2500000   0.5833333  -0.0833333), wk =   0.1111111
        k(    9) = (   0.5833333  -0.2500000   0.7500000), wk =   0.1111111
        k(   10) = (   0.4166667  -0.0833333   0.5833333), wk =   0.1111111
        k(   11) = (   0.2500000   0.0833333   0.4166667), wk =   0.1111111
        k(   12) = (  -0.0833333   0.7500000   0.0833333), wk =   0.0555556
        k(   13) = (   0.7500000  -0.0833333   0.9166667), wk =   0.1111111
        k(   14) = (   0.5833333   0.0833333   0.7500000), wk =   0.1111111
        k(   15) = (   0.4166667   0.2500000   0.5833333), wk =   0.1111111
        k(   16) = (  -0.0833333  -0.9166667   0.0833333), wk =   0.0555556
        k(   17) = (  -0.2500000  -0.7500000  -0.0833333), wk =   0.1111111
        k(   18) = (  -0.0833333  -0.5833333   0.0833333), wk =   0.0555556
        k(   19) = (  -0.2500000   0.2500000   0.2500000), wk =   0.0185185
        k(   20) = (  -0.4166667   0.4166667   0.0833333), wk =   0.0555556
        k(   21) = (   0.4166667  -0.4166667   0.9166667), wk =   0.0555556
        k(   22) = (   0.2500000  -0.2500000   0.7500000), wk =   0.0555556
        k(   23) = (  -0.2500000   0.5833333   0.2500000), wk =   0.0555556
        k(   24) = (   0.5833333  -0.2500000   1.0833333), wk =   0.1111111
        k(   25) = (   0.4166667  -0.0833333   0.9166667), wk =   0.1111111
        k(   26) = (  -0.2500000  -1.0833333   0.2500000), wk =   0.0555556
        k(   27) = (  -0.4166667   0.4166667   0.4166667), wk =   0.0185185
        k(   28) = (   0.4166667  -0.4166667   1.2500000), wk =   0.0555556

     Dense  grid:     1917 G-vectors     FFT dimensions: (  20,  20,  20)

     Estimated max dynamical RAM per process >       2.03 MB

     Initial potential from superposition of free atoms

     starting charge    7.99901, renormalised to    8.00000
     Starting wfcs are    8 randomized atomic wfcs

     total cpu time spent up to now is        0.1 secs

     Self-consistent Calculation

     iteration #  1     ecut=    15.00 Ry     beta= 0.60
     Davidson diagonalization with overlap
     ethr =  1.00E-02,  avg # of iterations =  2.0

     Threshold (ethr) on eigenvalues was too large:
     Diagonalizing with lowered threshold

     Davidson diagonalization with overlap
     ethr =  8.43E-04,  avg # of iterations =  1.0

     total cpu time spent up to now is        0.1 secs

     total energy              =     -15.82785187 Ry
     Harris-Foulkes estimate   =     -15.85004933 Ry
     estimated scf accuracy    <       0.06712246 Ry

     iteration #  2     ecut=    15.00 Ry     beta= 0.60
     Davidson diagonalization with overlap
     ethr =  8.39E-04,  avg # of iterations =  1.0

     total cpu time spent up to now is        0.2 secs

     total energy              =     -15.82943081 Ry
     Harris-Foulkes estimate   =     -15.83077628 Ry
     estimated scf accuracy    <       0.00543472 Ry

     iteration #  3     ecut=    15.00 Ry     beta= 0.60
     Davidson diagonalization with overlap
     ethr =  6.79E-05,  avg # of iterations =  2.0

     total cpu time spent up to now is        0.2 secs

     total energy              =     -15.83017192 Ry
     Harris-Foulkes estimate   =     -15.83025084 Ry
     estimated scf accuracy    <       0.00017278 Ry

     iteration #  4     ecut=    15.00 Ry     beta= 0.60
     Davidson diagonalization with overlap
     ethr =  2.16E-06,  avg # of iterations =  2.1

     total cpu time spent up to now is        0.2 secs

     total energy              =     -15.83021514 Ry
     Harris-Foulkes estimate   =     -15.83023500 Ry
     estimated scf accuracy    <       0.00004014 Ry

     iteration #  5     ecut=    15.00 Ry     beta= 0.60
     Davidson diagonalization with overlap
     ethr =  5.02E-07,  avg # of iterations =  2.0

     total cpu time spent up to now is        0.3 secs

     End of self-consistent calculation

          k =-0.0833 0.0833 0.0833 (   259 PWs)   bands (ev):

    -5.4665   6.0333   6.7447   6.7447

          k =-0.2500 0.2500-0.0833 (   251 PWs)   bands (ev):

    -4.9585   3.8870   5.4055   6.5295

          k =-0.4167 0.4167-0.2500 (   248 PWs)   bands (ev):

    -3.7753   0.9271   4.9386   5.8459

          k = 0.4167-0.4167 0.5833 (   246 PWs)   bands (ev):

    -2.9835  -0.3340   5.0274   5.4326

          k = 0.2500-0.2500 0.4167 (   246 PWs)   bands (ev):

    -4.2226   1.8405   5.4850   5.5684

          k = 0.0833-0.0833 0.2500 (   255 PWs)   bands (ev):

    -5.2122   4.9545   6.0324   6.2778

          k =-0.0833 0.4167 0.0833 (   243 PWs)   bands (ev):

    -4.6963   3.7682   5.2478   5.2659

          k =-0.2500 0.5833-0.0833 (   245 PWs)   bands (ev):

    -3.7174   1.8343   3.8088   4.8346

          k = 0.5833-0.2500 0.7500 (   245 PWs)   bands (ev):

    -2.4766  -0.1088   3.1957   4.5747

          k = 0.4167-0.0833 0.5833 (   246 PWs)   bands (ev):

    -3.2847   1.0726   3.1073   5.1189

          k = 0.2500 0.0833 0.4167 (   247 PWs)   bands (ev):

    -4.4550   2.8386   4.5688   5.8638

          k =-0.0833 0.7500 0.0833 (   242 PWs)   bands (ev):

    -2.9532   1.0218   3.7511   4.1387

          k = 0.7500-0.0833 0.9167 (   242 PWs)   bands (ev):

    -1.6515  -0.4001   2.8030   3.6766

          k = 0.5833 0.0833 0.7500 (   244 PWs)   bands (ev):

    -2.0241  -0.0959   2.2866   4.2738

          k = 0.4167 0.2500 0.5833 (   247 PWs)   bands (ev):

    -3.1502   0.2497   4.1888   5.2295

          k =-0.0833-0.9167 0.0833 (   238 PWs)   bands (ev):

    -1.7641  -0.4148   3.4557   3.9083

          k =-0.2500-0.7500-0.0833 (   245 PWs)   bands (ev):

    -2.7678   0.7734   3.1771   4.0437

          k =-0.0833-0.5833 0.0833 (   245 PWs)   bands (ev):

    -3.9412   2.4515   4.3546   4.5941

          k =-0.2500 0.2500 0.2500 (   247 PWs)   bands (ev):

    -4.7072   2.8253   6.0909   6.0909

          k =-0.4167 0.4167 0.0833 (   251 PWs)   bands (ev):

    -3.9793   1.9001   3.7712   5.9138

          k = 0.4167-0.4167 0.9167 (   244 PWs)   bands (ev):

    -2.6848   0.4057   2.5503   5.0538

          k = 0.2500-0.2500 0.7500 (   242 PWs)   bands (ev):

    -2.6340   0.3219   3.0934   4.5261

          k =-0.2500 0.5833 0.2500 (   242 PWs)   bands (ev):

    -3.5131   1.0211   4.3346   4.9293

          k = 0.5833-0.2500 1.0833 (   245 PWs)   bands (ev):

    -2.4219   0.3292   2.6509   4.0304

          k = 0.4167-0.0833 0.9167 (   245 PWs)   bands (ev):

    -1.5203  -0.4055   2.4341   3.2880

          k =-0.2500-1.0833 0.2500 (   241 PWs)   bands (ev):

    -1.7366  -0.3365   2.2972   4.3151

          k =-0.4167 0.4167 0.4167 (   241 PWs)   bands (ev):

    -3.4039   0.1064   5.6820   5.6820

          k = 0.4167-0.4167 1.2500 (   248 PWs)   bands (ev):

    -2.7340  -0.1902   3.7225   5.1927

     highest occupied level (ev):     6.7447

!    total energy              =     -15.83022055 Ry
     Harris-Foulkes estimate   =     -15.83022075 Ry
     estimated scf accuracy    <       0.00000042 Ry

     The total energy is the sum of the following terms:

     one-electron contribution =       5.26010853 Ry
     hartree contribution      =       1.02490778 Ry
     xc contribution           =      -4.87748307 Ry
     ewald contribution        =     -17.23775379 Ry

     convergence has been achieved in   5 iterations

     Writing output data file silicon.save/

     init_run     :      0.04s CPU      0.04s WALL (       1 calls)
     electrons    :      0.19s CPU      0.20s WALL (       1 calls)

     Called by init_run:
     wfcinit      :      0.02s CPU      0.02s WALL (       1 calls)
     potinit      :      0.00s CPU      0.00s WALL (       1 calls)
     hinit0       :      0.01s CPU      0.01s WALL (       1 calls)

     Called by electrons:
     c_bands      :      0.15s CPU      0.16s WALL (       6 calls)
     sum_band     :      0.03s CPU      0.03s WALL (       6 calls)
     v_of_rho     :      0.00s CPU      0.00s WALL (       6 calls)
     mix_rho      :      0.00s CPU      0.00s WALL (       6 calls)

     Called by c_bands:
     init_us_2    :      0.01s CPU      0.01s WALL (     364 calls)
     cegterg      :      0.14s CPU      0.15s WALL (     168 calls)

     Called by sum_band:

     Called by *egterg:
     h_psi        :      0.13s CPU      0.13s WALL (     479 calls)
     g_psi        :      0.00s CPU      0.00s WALL (     283 calls)
     cdiaghg      :      0.01s CPU      0.01s WALL (     423 calls)

     Called by h_psi:
     h_psi:pot    :      0.12s CPU      0.13s WALL (     479 calls)
     h_psi:calbec :      0.01s CPU      0.01s WALL (     479 calls)
     vloc_psi     :      0.11s CPU      0.12s WALL (     479 calls)
     add_vuspsi   :      0.01s CPU      0.01s WALL (     479 calls)

     General routines
     calbec       :      0.01s CPU      0.01s WALL (     479 calls)
     fft          :      0.00s CPU      0.00s WALL (      18 calls)
     ffts         :      0.00s CPU      0.00s WALL (       6 calls)
     fftw         :      0.09s CPU      0.09s WALL (    4578 calls)

     Parallel routines

     PWSCF        :      0.26s CPU      0.27s WALL


   This run was terminated on:  13:43: 9  29Aug2023            

=------------------------------------------------------------------------------=
   JOB DONE.
=------------------------------------------------------------------------------=
