
     Program PWSCF v.6.4.1 starts on  9Feb2024 at 23:42: 5 

     This program is part of the open-source Quantum ESPRESSO suite
     for quantum simulation of materials; please cite
         "P. Giannozzi et al., J. Phys.:Condens. Matter 21 395502 (2009);
         "P. Giannozzi et al., J. Phys.:Condens. Matter 29 465901 (2017);
          URL http://www.quantum-espresso.org", 
     in publications or presentations arising from this work. More details at
     http://www.quantum-espresso.org/quote

     Parallel version (MPI), running on     1 processors

     MPI processes distributed on     1 nodes
     Reading input from scf.silicon_epsilon.in

     Current dimensions of program PWSCF are:
     Max number of different atomic species (ntypx) = 10
     Max number of k-points (npk) =  40000
     Max angular momentum in pseudopotentials (lmaxx) =  3

     Subspace diagonalization in iterative solution of the eigenvalue problem:
     a serial algorithm will be used


     G-vector sticks info
     --------------------
     sticks:   dense  smooth     PW     G-vecs:    dense   smooth      PW
     Sum         583     583    241                 9257     9257    2421



     bravais-lattice index     =            2
     lattice parameter (alat)  =      10.2600  a.u.
     unit-cell volume          =     270.0114 (a.u.)^3
     number of atoms/cell      =            2
     number of atomic types    =            1
     number of electrons       =         8.00
     number of Kohn-Sham states=           20
     kinetic-energy cutoff     =      40.0000  Ry
     charge density cutoff     =     160.0000  Ry
     convergence threshold     =      1.0E-06
     mixing beta               =       0.6000
     number of iterations used =            8  plain     mixing
     Exchange-correlation      = SLA PZ NOGX NOGC ( 1  1  0  0 0 0)

     celldm(1)=  10.260000  celldm(2)=   0.000000  celldm(3)=   0.000000
     celldm(4)=   0.000000  celldm(5)=   0.000000  celldm(6)=   0.000000

     crystal axes: (cart. coord. in units of alat)
               a(1) = (  -0.500000   0.000000   0.500000 )  
               a(2) = (   0.000000   0.500000   0.500000 )  
               a(3) = (  -0.500000   0.500000   0.000000 )  

     reciprocal axes: (cart. coord. in units 2 pi/alat)
               b(1) = ( -1.000000 -1.000000  1.000000 )  
               b(2) = (  1.000000  1.000000  1.000000 )  
               b(3) = ( -1.000000  1.000000 -1.000000 )  


     PseudoPot. # 1 for Si read from file:
     /home/meyn/q-e-qe-7.1/pseudo/Si.pz-vbc.UPF
     MD5 check sum: 9f25e6ff280f3123e9b3a84715b2e9c9
     Pseudo is Norm-conserving, Zval =  4.0
     Generated by new atomic code, or converted to UPF format
     Using radial grid of  431 points,  2 beta functions with: 
                l(1) =   0
                l(2) =   1

     atomic species   valence    mass     pseudopotential
        Si             4.00    28.08600     Si( 1.00)

     No symmetry found


                                    s                        frac. trans.

      isym =  1     identity                                     

 cryst.   s( 1) = (     1          0          0      )
                  (     0          1          0      )
                  (     0          0          1      )

 cart.    s( 1) = (  1.0000000  0.0000000  0.0000000 )
                  (  0.0000000  1.0000000  0.0000000 )
                  (  0.0000000  0.0000000  1.0000000 )


     point group C_1 (1)    
     there are  1 classes
     the character table:

       E    
A      1.00

     the symmetry operations in each class and the name of the first element:

     E        1
          identity                                               

   Cartesian axes

     site n.     atom                  positions (alat units)
         1           Si  tau(   1) = (   0.0000000   0.0000000   0.0000000  )
         2           Si  tau(   2) = (   0.2500000   0.2500000   0.2500000  )

   Crystallographic axes

     site n.     atom                  positions (cryst. coord.)
         1           Si  tau(   1) = (  0.0000000  0.0000000  0.0000000  )
         2           Si  tau(   2) = ( -0.2500000  0.7500000 -0.2500000  )

     number of k points=   216
                       cart. coord. in units 2pi/alat
        k(    1) = (   0.0000000   0.0000000   0.0000000), wk =   0.0092593
        k(    2) = (  -0.1666667   0.1666667  -0.5000001), wk =   0.0092593
        k(    3) = (  -0.3333333   0.3333333  -0.9999999), wk =   0.0092593
        k(    4) = (  -0.5000000   0.5000000  -1.5000000), wk =   0.0092593
        k(    5) = (  -0.6666667   0.6666667  -2.0000001), wk =   0.0092593
        k(    6) = (  -0.8333333   0.8333333  -2.4999999), wk =   0.0092593
        k(    7) = (  -0.1666667   0.1666667   0.1666667), wk =   0.0092593
        k(    8) = (  -0.3333333   0.3333333  -0.3333333), wk =   0.0092593
        k(    9) = (  -0.5000000   0.5000000  -0.8333334), wk =   0.0092593
        k(   10) = (  -0.6666667   0.6666667  -1.3333333), wk =   0.0092593
        k(   11) = (  -0.8333333   0.8333333  -1.8333333), wk =   0.0092593
        k(   12) = (  -1.0000000   1.0000000  -2.3333334), wk =   0.0092593
        k(   13) = (  -0.3333333   0.3333333   0.3333333), wk =   0.0092593
        k(   14) = (  -0.5000000   0.5000000  -0.1666666), wk =   0.0092593
        k(   15) = (  -0.6666667   0.6666667  -0.6666667), wk =   0.0092593
        k(   16) = (  -0.8333333   0.8333333  -1.1666667), wk =   0.0092593
        k(   17) = (  -1.0000000   1.0000000  -1.6666666), wk =   0.0092593
        k(   18) = (  -1.1666667   1.1666667  -2.1666667), wk =   0.0092593
        k(   19) = (  -0.5000000   0.5000000   0.5000000), wk =   0.0092593
        k(   20) = (  -0.6666667   0.6666667  -0.0000001), wk =   0.0092593
        k(   21) = (  -0.8333333   0.8333333  -0.4999999), wk =   0.0092593
        k(   22) = (  -1.0000000   1.0000000  -1.0000000), wk =   0.0092593
        k(   23) = (  -1.1666667   1.1666667  -1.5000001), wk =   0.0092593
        k(   24) = (  -1.3333333   1.3333333  -1.9999999), wk =   0.0092593
        k(   25) = (  -0.6666667   0.6666667   0.6666667), wk =   0.0092593
        k(   26) = (  -0.8333333   0.8333333   0.1666667), wk =   0.0092593
        k(   27) = (  -1.0000000   1.0000000  -0.3333334), wk =   0.0092593
        k(   28) = (  -1.1666667   1.1666667  -0.8333333), wk =   0.0092593
        k(   29) = (  -1.3333333   1.3333333  -1.3333333), wk =   0.0092593
        k(   30) = (  -1.5000000   1.5000000  -1.8333334), wk =   0.0092593
        k(   31) = (  -0.8333333   0.8333333   0.8333333), wk =   0.0092593
        k(   32) = (  -1.0000000   1.0000000   0.3333334), wk =   0.0092593
        k(   33) = (  -1.1666667   1.1666667  -0.1666667), wk =   0.0092593
        k(   34) = (  -1.3333333   1.3333333  -0.6666667), wk =   0.0092593
        k(   35) = (  -1.5000000   1.5000000  -1.1666666), wk =   0.0092593
        k(   36) = (  -1.6666667   1.6666667  -1.6666667), wk =   0.0092593
        k(   37) = (   0.5000001   0.1666667   0.1666667), wk =   0.0092593
        k(   38) = (   0.3333333   0.3333333  -0.3333333), wk =   0.0092593
        k(   39) = (   0.1666666   0.5000000  -0.8333334), wk =   0.0092593
        k(   40) = (   0.0000001   0.6666667  -1.3333333), wk =   0.0092593
        k(   41) = (  -0.1666667   0.8333333  -1.8333333), wk =   0.0092593
        k(   42) = (  -0.3333334   1.0000000  -2.3333334), wk =   0.0092593
        k(   43) = (   0.3333333   0.3333333   0.3333333), wk =   0.0092593
        k(   44) = (   0.1666667   0.5000001  -0.1666667), wk =   0.0092593
        k(   45) = (   0.0000000   0.6666666  -0.6666666), wk =   0.0092593
        k(   46) = (  -0.1666667   0.8333333  -1.1666667), wk =   0.0092593
        k(   47) = (  -0.3333333   1.0000001  -1.6666667), wk =   0.0092593
        k(   48) = (  -0.5000000   1.1666666  -2.1666666), wk =   0.0092593
        k(   49) = (   0.1666666   0.5000000   0.5000000), wk =   0.0092593
        k(   50) = (   0.0000000   0.6666666   0.0000000), wk =   0.0092593
        k(   51) = (  -0.1666666   0.8333334  -0.5000000), wk =   0.0092593
        k(   52) = (  -0.3333334   1.0000000  -1.0000000), wk =   0.0092593
        k(   53) = (  -0.5000000   1.1666666  -1.5000000), wk =   0.0092593
        k(   54) = (  -0.6666666   1.3333334  -2.0000000), wk =   0.0092593
        k(   55) = (   0.0000001   0.6666667   0.6666667), wk =   0.0092593
        k(   56) = (  -0.1666667   0.8333333   0.1666667), wk =   0.0092593
        k(   57) = (  -0.3333334   1.0000000  -0.3333334), wk =   0.0092593
        k(   58) = (  -0.4999999   1.1666667  -0.8333333), wk =   0.0092593
        k(   59) = (  -0.6666667   1.3333333  -1.3333333), wk =   0.0092593
        k(   60) = (  -0.8333334   1.5000000  -1.8333334), wk =   0.0092593
        k(   61) = (  -0.1666667   0.8333333   0.8333333), wk =   0.0092593
        k(   62) = (  -0.3333333   1.0000001   0.3333333), wk =   0.0092593
        k(   63) = (  -0.5000000   1.1666666  -0.1666666), wk =   0.0092593
        k(   64) = (  -0.6666667   1.3333333  -0.6666667), wk =   0.0092593
        k(   65) = (  -0.8333333   1.5000001  -1.1666667), wk =   0.0092593
        k(   66) = (  -1.0000000   1.6666666  -1.6666666), wk =   0.0092593
        k(   67) = (  -0.3333334   1.0000000   1.0000000), wk =   0.0092593
        k(   68) = (  -0.5000000   1.1666666   0.5000000), wk =   0.0092593
        k(   69) = (  -0.6666666   1.3333334   0.0000000), wk =   0.0092593
        k(   70) = (  -0.8333334   1.5000000  -0.5000000), wk =   0.0092593
        k(   71) = (  -1.0000000   1.6666666  -1.0000000), wk =   0.0092593
        k(   72) = (  -1.1666666   1.8333334  -1.5000000), wk =   0.0092593
        k(   73) = (   0.9999999   0.3333333   0.3333333), wk =   0.0092593
        k(   74) = (   0.8333334   0.5000000  -0.1666666), wk =   0.0092593
        k(   75) = (   0.6666667   0.6666667  -0.6666667), wk =   0.0092593
        k(   76) = (   0.4999999   0.8333333  -1.1666667), wk =   0.0092593
        k(   77) = (   0.3333334   1.0000000  -1.6666666), wk =   0.0092593
        k(   78) = (   0.1666667   1.1666667  -2.1666667), wk =   0.0092593
        k(   79) = (   0.8333334   0.5000000   0.5000000), wk =   0.0092593
        k(   80) = (   0.6666666   0.6666666   0.0000000), wk =   0.0092593
        k(   81) = (   0.5000000   0.8333334  -0.5000000), wk =   0.0092593
        k(   82) = (   0.3333334   1.0000000  -1.0000000), wk =   0.0092593
        k(   83) = (   0.1666666   1.1666666  -1.5000000), wk =   0.0092593
        k(   84) = (   0.0000000   1.3333334  -2.0000000), wk =   0.0092593
        k(   85) = (   0.6666667   0.6666667   0.6666667), wk =   0.0092593
        k(   86) = (   0.5000000   0.8333334   0.1666666), wk =   0.0092593
        k(   87) = (   0.3333333   0.9999999  -0.3333333), wk =   0.0092593
        k(   88) = (   0.1666667   1.1666667  -0.8333333), wk =   0.0092593
        k(   89) = (   0.0000000   1.3333334  -1.3333334), wk =   0.0092593
        k(   90) = (  -0.1666667   1.4999999  -1.8333333), wk =   0.0092593
        k(   91) = (   0.4999999   0.8333333   0.8333333), wk =   0.0092593
        k(   92) = (   0.3333334   1.0000000   0.3333334), wk =   0.0092593
        k(   93) = (   0.1666667   1.1666667  -0.1666667), wk =   0.0092593
        k(   94) = (  -0.0000001   1.3333333  -0.6666667), wk =   0.0092593
        k(   95) = (  -0.1666666   1.5000000  -1.1666666), wk =   0.0092593
        k(   96) = (  -0.3333333   1.6666667  -1.6666667), wk =   0.0092593
        k(   97) = (   0.3333334   1.0000000   1.0000000), wk =   0.0092593
        k(   98) = (   0.1666666   1.1666666   0.5000000), wk =   0.0092593
        k(   99) = (   0.0000000   1.3333334   0.0000000), wk =   0.0092593
        k(  100) = (  -0.1666666   1.5000000  -0.5000000), wk =   0.0092593
        k(  101) = (  -0.3333334   1.6666666  -1.0000000), wk =   0.0092593
        k(  102) = (  -0.5000000   1.8333334  -1.5000000), wk =   0.0092593
        k(  103) = (   0.1666667   1.1666667   1.1666667), wk =   0.0092593
        k(  104) = (   0.0000000   1.3333334   0.6666666), wk =   0.0092593
        k(  105) = (  -0.1666667   1.4999999   0.1666667), wk =   0.0092593
        k(  106) = (  -0.3333333   1.6666667  -0.3333333), wk =   0.0092593
        k(  107) = (  -0.5000000   1.8333334  -0.8333334), wk =   0.0092593
        k(  108) = (  -0.6666667   1.9999999  -1.3333333), wk =   0.0092593
        k(  109) = (   1.5000000   0.5000000   0.5000000), wk =   0.0092593
        k(  110) = (   1.3333333   0.6666667  -0.0000001), wk =   0.0092593
        k(  111) = (   1.1666667   0.8333333  -0.4999999), wk =   0.0092593
        k(  112) = (   1.0000000   1.0000000  -1.0000000), wk =   0.0092593
        k(  113) = (   0.8333333   1.1666667  -1.5000001), wk =   0.0092593
        k(  114) = (   0.6666667   1.3333333  -1.9999999), wk =   0.0092593
        k(  115) = (   1.3333333   0.6666667   0.6666667), wk =   0.0092593
        k(  116) = (   1.1666667   0.8333333   0.1666667), wk =   0.0092593
        k(  117) = (   1.0000000   1.0000000  -0.3333334), wk =   0.0092593
        k(  118) = (   0.8333333   1.1666667  -0.8333333), wk =   0.0092593
        k(  119) = (   0.6666667   1.3333333  -1.3333333), wk =   0.0092593
        k(  120) = (   0.5000000   1.5000000  -1.8333334), wk =   0.0092593
        k(  121) = (   1.1666667   0.8333333   0.8333333), wk =   0.0092593
        k(  122) = (   1.0000000   1.0000000   0.3333334), wk =   0.0092593
        k(  123) = (   0.8333333   1.1666667  -0.1666667), wk =   0.0092593
        k(  124) = (   0.6666667   1.3333333  -0.6666667), wk =   0.0092593
        k(  125) = (   0.5000000   1.5000000  -1.1666666), wk =   0.0092593
        k(  126) = (   0.3333333   1.6666667  -1.6666667), wk =   0.0092593
        k(  127) = (   1.0000000   1.0000000   1.0000000), wk =   0.0092593
        k(  128) = (   0.8333333   1.1666667   0.4999999), wk =   0.0092593
        k(  129) = (   0.6666667   1.3333333   0.0000001), wk =   0.0092593
        k(  130) = (   0.5000000   1.5000000  -0.5000000), wk =   0.0092593
        k(  131) = (   0.3333333   1.6666667  -1.0000001), wk =   0.0092593
        k(  132) = (   0.1666667   1.8333333  -1.4999999), wk =   0.0092593
        k(  133) = (   0.8333333   1.1666667   1.1666667), wk =   0.0092593
        k(  134) = (   0.6666667   1.3333333   0.6666667), wk =   0.0092593
        k(  135) = (   0.5000000   1.5000000   0.1666666), wk =   0.0092593
        k(  136) = (   0.3333333   1.6666667  -0.3333333), wk =   0.0092593
        k(  137) = (   0.1666667   1.8333333  -0.8333333), wk =   0.0092593
        k(  138) = (   0.0000000   2.0000000  -1.3333334), wk =   0.0092593
        k(  139) = (   0.6666667   1.3333333   1.3333333), wk =   0.0092593
        k(  140) = (   0.5000000   1.5000000   0.8333334), wk =   0.0092593
        k(  141) = (   0.3333333   1.6666667   0.3333333), wk =   0.0092593
        k(  142) = (   0.1666667   1.8333333  -0.1666667), wk =   0.0092593
        k(  143) = (   0.0000000   2.0000000  -0.6666666), wk =   0.0092593
        k(  144) = (  -0.1666667   2.1666667  -1.1666667), wk =   0.0092593
        k(  145) = (   2.0000001   0.6666667   0.6666667), wk =   0.0092593
        k(  146) = (   1.8333333   0.8333333   0.1666667), wk =   0.0092593
        k(  147) = (   1.6666666   1.0000000  -0.3333334), wk =   0.0092593
        k(  148) = (   1.5000001   1.1666667  -0.8333333), wk =   0.0092593
        k(  149) = (   1.3333333   1.3333333  -1.3333333), wk =   0.0092593
        k(  150) = (   1.1666666   1.5000000  -1.8333334), wk =   0.0092593
        k(  151) = (   1.8333333   0.8333333   0.8333333), wk =   0.0092593
        k(  152) = (   1.6666667   1.0000001   0.3333333), wk =   0.0092593
        k(  153) = (   1.5000000   1.1666666  -0.1666666), wk =   0.0092593
        k(  154) = (   1.3333333   1.3333333  -0.6666667), wk =   0.0092593
        k(  155) = (   1.1666667   1.5000001  -1.1666667), wk =   0.0092593
        k(  156) = (   1.0000000   1.6666666  -1.6666666), wk =   0.0092593
        k(  157) = (   1.6666666   1.0000000   1.0000000), wk =   0.0092593
        k(  158) = (   1.5000000   1.1666666   0.5000000), wk =   0.0092593
        k(  159) = (   1.3333334   1.3333334   0.0000000), wk =   0.0092593
        k(  160) = (   1.1666666   1.5000000  -0.5000000), wk =   0.0092593
        k(  161) = (   1.0000000   1.6666666  -1.0000000), wk =   0.0092593
        k(  162) = (   0.8333334   1.8333334  -1.5000000), wk =   0.0092593
        k(  163) = (   1.5000001   1.1666667   1.1666667), wk =   0.0092593
        k(  164) = (   1.3333333   1.3333333   0.6666667), wk =   0.0092593
        k(  165) = (   1.1666666   1.5000000   0.1666666), wk =   0.0092593
        k(  166) = (   1.0000001   1.6666667  -0.3333333), wk =   0.0092593
        k(  167) = (   0.8333333   1.8333333  -0.8333333), wk =   0.0092593
        k(  168) = (   0.6666666   2.0000000  -1.3333334), wk =   0.0092593
        k(  169) = (   1.3333333   1.3333333   1.3333333), wk =   0.0092593
        k(  170) = (   1.1666667   1.5000001   0.8333333), wk =   0.0092593
        k(  171) = (   1.0000000   1.6666666   0.3333334), wk =   0.0092593
        k(  172) = (   0.8333333   1.8333333  -0.1666667), wk =   0.0092593
        k(  173) = (   0.6666667   2.0000001  -0.6666667), wk =   0.0092593
        k(  174) = (   0.5000000   2.1666666  -1.1666666), wk =   0.0092593
        k(  175) = (   1.1666666   1.5000000   1.5000000), wk =   0.0092593
        k(  176) = (   1.0000000   1.6666666   1.0000000), wk =   0.0092593
        k(  177) = (   0.8333334   1.8333334   0.5000000), wk =   0.0092593
        k(  178) = (   0.6666666   2.0000000   0.0000000), wk =   0.0092593
        k(  179) = (   0.5000000   2.1666666  -0.5000000), wk =   0.0092593
        k(  180) = (   0.3333334   2.3333334  -1.0000000), wk =   0.0092593
        k(  181) = (   2.4999999   0.8333333   0.8333333), wk =   0.0092593
        k(  182) = (   2.3333334   1.0000000   0.3333334), wk =   0.0092593
        k(  183) = (   2.1666667   1.1666667  -0.1666667), wk =   0.0092593
        k(  184) = (   1.9999999   1.3333333  -0.6666667), wk =   0.0092593
        k(  185) = (   1.8333334   1.5000000  -1.1666666), wk =   0.0092593
        k(  186) = (   1.6666667   1.6666667  -1.6666667), wk =   0.0092593
        k(  187) = (   2.3333334   1.0000000   1.0000000), wk =   0.0092593
        k(  188) = (   2.1666666   1.1666666   0.5000000), wk =   0.0092593
        k(  189) = (   2.0000000   1.3333334  -0.0000000), wk =   0.0092593
        k(  190) = (   1.8333334   1.5000000  -0.5000000), wk =   0.0092593
        k(  191) = (   1.6666666   1.6666666  -1.0000000), wk =   0.0092593
        k(  192) = (   1.5000000   1.8333334  -1.5000000), wk =   0.0092593
        k(  193) = (   2.1666667   1.1666667   1.1666667), wk =   0.0092593
        k(  194) = (   2.0000000   1.3333334   0.6666666), wk =   0.0092593
        k(  195) = (   1.8333333   1.4999999   0.1666667), wk =   0.0092593
        k(  196) = (   1.6666667   1.6666667  -0.3333333), wk =   0.0092593
        k(  197) = (   1.5000000   1.8333334  -0.8333334), wk =   0.0092593
        k(  198) = (   1.3333333   1.9999999  -1.3333333), wk =   0.0092593
        k(  199) = (   1.9999999   1.3333333   1.3333333), wk =   0.0092593
        k(  200) = (   1.8333334   1.5000000   0.8333334), wk =   0.0092593
        k(  201) = (   1.6666667   1.6666667   0.3333333), wk =   0.0092593
        k(  202) = (   1.4999999   1.8333333  -0.1666667), wk =   0.0092593
        k(  203) = (   1.3333334   2.0000000  -0.6666666), wk =   0.0092593
        k(  204) = (   1.1666667   2.1666667  -1.1666667), wk =   0.0092593
        k(  205) = (   1.8333334   1.5000000   1.5000000), wk =   0.0092593
        k(  206) = (   1.6666666   1.6666666   1.0000000), wk =   0.0092593
        k(  207) = (   1.5000000   1.8333334   0.5000000), wk =   0.0092593
        k(  208) = (   1.3333334   2.0000000   0.0000000), wk =   0.0092593
        k(  209) = (   1.1666666   2.1666666  -0.5000000), wk =   0.0092593
        k(  210) = (   1.0000000   2.3333334  -1.0000000), wk =   0.0092593
        k(  211) = (   1.6666667   1.6666667   1.6666667), wk =   0.0092593
        k(  212) = (   1.5000000   1.8333334   1.1666666), wk =   0.0092593
        k(  213) = (   1.3333333   1.9999999   0.6666667), wk =   0.0092593
        k(  214) = (   1.1666667   2.1666667   0.1666667), wk =   0.0092593
        k(  215) = (   1.0000000   2.3333334  -0.3333334), wk =   0.0092593
        k(  216) = (   0.8333333   2.4999999  -0.8333333), wk =   0.0092593

                       cryst. coord.
        k(    1) = (   0.0000000   0.0000000   0.0000000), wk =   0.0092593
        k(    2) = (  -0.1666667  -0.1666667   0.1666667), wk =   0.0092593
        k(    3) = (  -0.3333333  -0.3333333   0.3333333), wk =   0.0092593
        k(    4) = (  -0.5000000  -0.5000000   0.5000000), wk =   0.0092593
        k(    5) = (  -0.6666667  -0.6666667   0.6666667), wk =   0.0092593
        k(    6) = (  -0.8333333  -0.8333333   0.8333333), wk =   0.0092593
        k(    7) = (   0.1666667   0.1666667   0.1666667), wk =   0.0092593
        k(    8) = (   0.0000000   0.0000000   0.3333333), wk =   0.0092593
        k(    9) = (  -0.1666667  -0.1666667   0.5000000), wk =   0.0092593
        k(   10) = (  -0.3333333  -0.3333333   0.6666667), wk =   0.0092593
        k(   11) = (  -0.5000000  -0.5000000   0.8333333), wk =   0.0092593
        k(   12) = (  -0.6666667  -0.6666667   1.0000000), wk =   0.0092593
        k(   13) = (   0.3333333   0.3333333   0.3333333), wk =   0.0092593
        k(   14) = (   0.1666667   0.1666667   0.5000000), wk =   0.0092593
        k(   15) = (   0.0000000   0.0000000   0.6666667), wk =   0.0092593
        k(   16) = (  -0.1666667  -0.1666667   0.8333333), wk =   0.0092593
        k(   17) = (  -0.3333333  -0.3333333   1.0000000), wk =   0.0092593
        k(   18) = (  -0.5000000  -0.5000000   1.1666667), wk =   0.0092593
        k(   19) = (   0.5000000   0.5000000   0.5000000), wk =   0.0092593
        k(   20) = (   0.3333333   0.3333333   0.6666667), wk =   0.0092593
        k(   21) = (   0.1666667   0.1666667   0.8333333), wk =   0.0092593
        k(   22) = (   0.0000000   0.0000000   1.0000000), wk =   0.0092593
        k(   23) = (  -0.1666667  -0.1666667   1.1666667), wk =   0.0092593
        k(   24) = (  -0.3333333  -0.3333333   1.3333333), wk =   0.0092593
        k(   25) = (   0.6666667   0.6666667   0.6666667), wk =   0.0092593
        k(   26) = (   0.5000000   0.5000000   0.8333333), wk =   0.0092593
        k(   27) = (   0.3333333   0.3333333   1.0000000), wk =   0.0092593
        k(   28) = (   0.1666667   0.1666667   1.1666667), wk =   0.0092593
        k(   29) = (   0.0000000   0.0000000   1.3333333), wk =   0.0092593
        k(   30) = (  -0.1666667  -0.1666667   1.5000000), wk =   0.0092593
        k(   31) = (   0.8333333   0.8333333   0.8333333), wk =   0.0092593
        k(   32) = (   0.6666667   0.6666667   1.0000000), wk =   0.0092593
        k(   33) = (   0.5000000   0.5000000   1.1666667), wk =   0.0092593
        k(   34) = (   0.3333333   0.3333333   1.3333333), wk =   0.0092593
        k(   35) = (   0.1666667   0.1666667   1.5000000), wk =   0.0092593
        k(   36) = (   0.0000000   0.0000000   1.6666667), wk =   0.0092593
        k(   37) = (  -0.1666667   0.1666667  -0.1666667), wk =   0.0092593
        k(   38) = (  -0.3333333   0.0000000   0.0000000), wk =   0.0092593
        k(   39) = (  -0.5000000  -0.1666667   0.1666667), wk =   0.0092593
        k(   40) = (  -0.6666667  -0.3333333   0.3333333), wk =   0.0092593
        k(   41) = (  -0.8333333  -0.5000000   0.5000000), wk =   0.0092593
        k(   42) = (  -1.0000000  -0.6666667   0.6666667), wk =   0.0092593
        k(   43) = (   0.0000000   0.3333333   0.0000000), wk =   0.0092593
        k(   44) = (  -0.1666667   0.1666667   0.1666667), wk =   0.0092593
        k(   45) = (  -0.3333333   0.0000000   0.3333333), wk =   0.0092593
        k(   46) = (  -0.5000000  -0.1666667   0.5000000), wk =   0.0092593
        k(   47) = (  -0.6666667  -0.3333333   0.6666667), wk =   0.0092593
        k(   48) = (  -0.8333333  -0.5000000   0.8333333), wk =   0.0092593
        k(   49) = (   0.1666667   0.5000000   0.1666667), wk =   0.0092593
        k(   50) = (   0.0000000   0.3333333   0.3333333), wk =   0.0092593
        k(   51) = (  -0.1666667   0.1666667   0.5000000), wk =   0.0092593
        k(   52) = (  -0.3333333   0.0000000   0.6666667), wk =   0.0092593
        k(   53) = (  -0.5000000  -0.1666667   0.8333333), wk =   0.0092593
        k(   54) = (  -0.6666667  -0.3333333   1.0000000), wk =   0.0092593
        k(   55) = (   0.3333333   0.6666667   0.3333333), wk =   0.0092593
        k(   56) = (   0.1666667   0.5000000   0.5000000), wk =   0.0092593
        k(   57) = (   0.0000000   0.3333333   0.6666667), wk =   0.0092593
        k(   58) = (  -0.1666667   0.1666667   0.8333333), wk =   0.0092593
        k(   59) = (  -0.3333333   0.0000000   1.0000000), wk =   0.0092593
        k(   60) = (  -0.5000000  -0.1666667   1.1666667), wk =   0.0092593
        k(   61) = (   0.5000000   0.8333333   0.5000000), wk =   0.0092593
        k(   62) = (   0.3333333   0.6666667   0.6666667), wk =   0.0092593
        k(   63) = (   0.1666667   0.5000000   0.8333333), wk =   0.0092593
        k(   64) = (   0.0000000   0.3333333   1.0000000), wk =   0.0092593
        k(   65) = (  -0.1666667   0.1666667   1.1666667), wk =   0.0092593
        k(   66) = (  -0.3333333   0.0000000   1.3333333), wk =   0.0092593
        k(   67) = (   0.6666667   1.0000000   0.6666667), wk =   0.0092593
        k(   68) = (   0.5000000   0.8333333   0.8333333), wk =   0.0092593
        k(   69) = (   0.3333333   0.6666667   1.0000000), wk =   0.0092593
        k(   70) = (   0.1666667   0.5000000   1.1666667), wk =   0.0092593
        k(   71) = (   0.0000000   0.3333333   1.3333333), wk =   0.0092593
        k(   72) = (  -0.1666667   0.1666667   1.5000000), wk =   0.0092593
        k(   73) = (  -0.3333333   0.3333333  -0.3333333), wk =   0.0092593
        k(   74) = (  -0.5000000   0.1666667  -0.1666667), wk =   0.0092593
        k(   75) = (  -0.6666667   0.0000000   0.0000000), wk =   0.0092593
        k(   76) = (  -0.8333333  -0.1666667   0.1666667), wk =   0.0092593
        k(   77) = (  -1.0000000  -0.3333333   0.3333333), wk =   0.0092593
        k(   78) = (  -1.1666667  -0.5000000   0.5000000), wk =   0.0092593
        k(   79) = (  -0.1666667   0.5000000  -0.1666667), wk =   0.0092593
        k(   80) = (  -0.3333333   0.3333333   0.0000000), wk =   0.0092593
        k(   81) = (  -0.5000000   0.1666667   0.1666667), wk =   0.0092593
        k(   82) = (  -0.6666667   0.0000000   0.3333333), wk =   0.0092593
        k(   83) = (  -0.8333333  -0.1666667   0.5000000), wk =   0.0092593
        k(   84) = (  -1.0000000  -0.3333333   0.6666667), wk =   0.0092593
        k(   85) = (   0.0000000   0.6666667   0.0000000), wk =   0.0092593
        k(   86) = (  -0.1666667   0.5000000   0.1666667), wk =   0.0092593
        k(   87) = (  -0.3333333   0.3333333   0.3333333), wk =   0.0092593
        k(   88) = (  -0.5000000   0.1666667   0.5000000), wk =   0.0092593
        k(   89) = (  -0.6666667   0.0000000   0.6666667), wk =   0.0092593
        k(   90) = (  -0.8333333  -0.1666667   0.8333333), wk =   0.0092593
        k(   91) = (   0.1666667   0.8333333   0.1666667), wk =   0.0092593
        k(   92) = (   0.0000000   0.6666667   0.3333333), wk =   0.0092593
        k(   93) = (  -0.1666667   0.5000000   0.5000000), wk =   0.0092593
        k(   94) = (  -0.3333333   0.3333333   0.6666667), wk =   0.0092593
        k(   95) = (  -0.5000000   0.1666667   0.8333333), wk =   0.0092593
        k(   96) = (  -0.6666667   0.0000000   1.0000000), wk =   0.0092593
        k(   97) = (   0.3333333   1.0000000   0.3333333), wk =   0.0092593
        k(   98) = (   0.1666667   0.8333333   0.5000000), wk =   0.0092593
        k(   99) = (   0.0000000   0.6666667   0.6666667), wk =   0.0092593
        k(  100) = (  -0.1666667   0.5000000   0.8333333), wk =   0.0092593
        k(  101) = (  -0.3333333   0.3333333   1.0000000), wk =   0.0092593
        k(  102) = (  -0.5000000   0.1666667   1.1666667), wk =   0.0092593
        k(  103) = (   0.5000000   1.1666667   0.5000000), wk =   0.0092593
        k(  104) = (   0.3333333   1.0000000   0.6666667), wk =   0.0092593
        k(  105) = (   0.1666667   0.8333333   0.8333333), wk =   0.0092593
        k(  106) = (   0.0000000   0.6666667   1.0000000), wk =   0.0092593
        k(  107) = (  -0.1666667   0.5000000   1.1666667), wk =   0.0092593
        k(  108) = (  -0.3333333   0.3333333   1.3333333), wk =   0.0092593
        k(  109) = (  -0.5000000   0.5000000  -0.5000000), wk =   0.0092593
        k(  110) = (  -0.6666667   0.3333333  -0.3333333), wk =   0.0092593
        k(  111) = (  -0.8333333   0.1666667  -0.1666667), wk =   0.0092593
        k(  112) = (  -1.0000000   0.0000000   0.0000000), wk =   0.0092593
        k(  113) = (  -1.1666667  -0.1666667   0.1666667), wk =   0.0092593
        k(  114) = (  -1.3333333  -0.3333333   0.3333333), wk =   0.0092593
        k(  115) = (  -0.3333333   0.6666667  -0.3333333), wk =   0.0092593
        k(  116) = (  -0.5000000   0.5000000  -0.1666667), wk =   0.0092593
        k(  117) = (  -0.6666667   0.3333333   0.0000000), wk =   0.0092593
        k(  118) = (  -0.8333333   0.1666667   0.1666667), wk =   0.0092593
        k(  119) = (  -1.0000000   0.0000000   0.3333333), wk =   0.0092593
        k(  120) = (  -1.1666667  -0.1666667   0.5000000), wk =   0.0092593
        k(  121) = (  -0.1666667   0.8333333  -0.1666667), wk =   0.0092593
        k(  122) = (  -0.3333333   0.6666667   0.0000000), wk =   0.0092593
        k(  123) = (  -0.5000000   0.5000000   0.1666667), wk =   0.0092593
        k(  124) = (  -0.6666667   0.3333333   0.3333333), wk =   0.0092593
        k(  125) = (  -0.8333333   0.1666667   0.5000000), wk =   0.0092593
        k(  126) = (  -1.0000000   0.0000000   0.6666667), wk =   0.0092593
        k(  127) = (   0.0000000   1.0000000   0.0000000), wk =   0.0092593
        k(  128) = (  -0.1666667   0.8333333   0.1666667), wk =   0.0092593
        k(  129) = (  -0.3333333   0.6666667   0.3333333), wk =   0.0092593
        k(  130) = (  -0.5000000   0.5000000   0.5000000), wk =   0.0092593
        k(  131) = (  -0.6666667   0.3333333   0.6666667), wk =   0.0092593
        k(  132) = (  -0.8333333   0.1666667   0.8333333), wk =   0.0092593
        k(  133) = (   0.1666667   1.1666667   0.1666667), wk =   0.0092593
        k(  134) = (   0.0000000   1.0000000   0.3333333), wk =   0.0092593
        k(  135) = (  -0.1666667   0.8333333   0.5000000), wk =   0.0092593
        k(  136) = (  -0.3333333   0.6666667   0.6666667), wk =   0.0092593
        k(  137) = (  -0.5000000   0.5000000   0.8333333), wk =   0.0092593
        k(  138) = (  -0.6666667   0.3333333   1.0000000), wk =   0.0092593
        k(  139) = (   0.3333333   1.3333333   0.3333333), wk =   0.0092593
        k(  140) = (   0.1666667   1.1666667   0.5000000), wk =   0.0092593
        k(  141) = (   0.0000000   1.0000000   0.6666667), wk =   0.0092593
        k(  142) = (  -0.1666667   0.8333333   0.8333333), wk =   0.0092593
        k(  143) = (  -0.3333333   0.6666667   1.0000000), wk =   0.0092593
        k(  144) = (  -0.5000000   0.5000000   1.1666667), wk =   0.0092593
        k(  145) = (  -0.6666667   0.6666667  -0.6666667), wk =   0.0092593
        k(  146) = (  -0.8333333   0.5000000  -0.5000000), wk =   0.0092593
        k(  147) = (  -1.0000000   0.3333333  -0.3333333), wk =   0.0092593
        k(  148) = (  -1.1666667   0.1666667  -0.1666667), wk =   0.0092593
        k(  149) = (  -1.3333333   0.0000000   0.0000000), wk =   0.0092593
        k(  150) = (  -1.5000000  -0.1666667   0.1666667), wk =   0.0092593
        k(  151) = (  -0.5000000   0.8333333  -0.5000000), wk =   0.0092593
        k(  152) = (  -0.6666667   0.6666667  -0.3333333), wk =   0.0092593
        k(  153) = (  -0.8333333   0.5000000  -0.1666667), wk =   0.0092593
        k(  154) = (  -1.0000000   0.3333333   0.0000000), wk =   0.0092593
        k(  155) = (  -1.1666667   0.1666667   0.1666667), wk =   0.0092593
        k(  156) = (  -1.3333333   0.0000000   0.3333333), wk =   0.0092593
        k(  157) = (  -0.3333333   1.0000000  -0.3333333), wk =   0.0092593
        k(  158) = (  -0.5000000   0.8333333  -0.1666667), wk =   0.0092593
        k(  159) = (  -0.6666667   0.6666667   0.0000000), wk =   0.0092593
        k(  160) = (  -0.8333333   0.5000000   0.1666667), wk =   0.0092593
        k(  161) = (  -1.0000000   0.3333333   0.3333333), wk =   0.0092593
        k(  162) = (  -1.1666667   0.1666667   0.5000000), wk =   0.0092593
        k(  163) = (  -0.1666667   1.1666667  -0.1666667), wk =   0.0092593
        k(  164) = (  -0.3333333   1.0000000   0.0000000), wk =   0.0092593
        k(  165) = (  -0.5000000   0.8333333   0.1666667), wk =   0.0092593
        k(  166) = (  -0.6666667   0.6666667   0.3333333), wk =   0.0092593
        k(  167) = (  -0.8333333   0.5000000   0.5000000), wk =   0.0092593
        k(  168) = (  -1.0000000   0.3333333   0.6666667), wk =   0.0092593
        k(  169) = (   0.0000000   1.3333333   0.0000000), wk =   0.0092593
        k(  170) = (  -0.1666667   1.1666667   0.1666667), wk =   0.0092593
        k(  171) = (  -0.3333333   1.0000000   0.3333333), wk =   0.0092593
        k(  172) = (  -0.5000000   0.8333333   0.5000000), wk =   0.0092593
        k(  173) = (  -0.6666667   0.6666667   0.6666667), wk =   0.0092593
        k(  174) = (  -0.8333333   0.5000000   0.8333333), wk =   0.0092593
        k(  175) = (   0.1666667   1.5000000   0.1666667), wk =   0.0092593
        k(  176) = (   0.0000000   1.3333333   0.3333333), wk =   0.0092593
        k(  177) = (  -0.1666667   1.1666667   0.5000000), wk =   0.0092593
        k(  178) = (  -0.3333333   1.0000000   0.6666667), wk =   0.0092593
        k(  179) = (  -0.5000000   0.8333333   0.8333333), wk =   0.0092593
        k(  180) = (  -0.6666667   0.6666667   1.0000000), wk =   0.0092593
        k(  181) = (  -0.8333333   0.8333333  -0.8333333), wk =   0.0092593
        k(  182) = (  -1.0000000   0.6666667  -0.6666667), wk =   0.0092593
        k(  183) = (  -1.1666667   0.5000000  -0.5000000), wk =   0.0092593
        k(  184) = (  -1.3333333   0.3333333  -0.3333333), wk =   0.0092593
        k(  185) = (  -1.5000000   0.1666667  -0.1666667), wk =   0.0092593
        k(  186) = (  -1.6666667   0.0000000   0.0000000), wk =   0.0092593
        k(  187) = (  -0.6666667   1.0000000  -0.6666667), wk =   0.0092593
        k(  188) = (  -0.8333333   0.8333333  -0.5000000), wk =   0.0092593
        k(  189) = (  -1.0000000   0.6666667  -0.3333333), wk =   0.0092593
        k(  190) = (  -1.1666667   0.5000000  -0.1666667), wk =   0.0092593
        k(  191) = (  -1.3333333   0.3333333   0.0000000), wk =   0.0092593
        k(  192) = (  -1.5000000   0.1666667   0.1666667), wk =   0.0092593
        k(  193) = (  -0.5000000   1.1666667  -0.5000000), wk =   0.0092593
        k(  194) = (  -0.6666667   1.0000000  -0.3333333), wk =   0.0092593
        k(  195) = (  -0.8333333   0.8333333  -0.1666667), wk =   0.0092593
        k(  196) = (  -1.0000000   0.6666667   0.0000000), wk =   0.0092593
        k(  197) = (  -1.1666667   0.5000000   0.1666667), wk =   0.0092593
        k(  198) = (  -1.3333333   0.3333333   0.3333333), wk =   0.0092593
        k(  199) = (  -0.3333333   1.3333333  -0.3333333), wk =   0.0092593
        k(  200) = (  -0.5000000   1.1666667  -0.1666667), wk =   0.0092593
        k(  201) = (  -0.6666667   1.0000000   0.0000000), wk =   0.0092593
        k(  202) = (  -0.8333333   0.8333333   0.1666667), wk =   0.0092593
        k(  203) = (  -1.0000000   0.6666667   0.3333333), wk =   0.0092593
        k(  204) = (  -1.1666667   0.5000000   0.5000000), wk =   0.0092593
        k(  205) = (  -0.1666667   1.5000000  -0.1666667), wk =   0.0092593
        k(  206) = (  -0.3333333   1.3333333   0.0000000), wk =   0.0092593
        k(  207) = (  -0.5000000   1.1666667   0.1666667), wk =   0.0092593
        k(  208) = (  -0.6666667   1.0000000   0.3333333), wk =   0.0092593
        k(  209) = (  -0.8333333   0.8333333   0.5000000), wk =   0.0092593
        k(  210) = (  -1.0000000   0.6666667   0.6666667), wk =   0.0092593
        k(  211) = (   0.0000000   1.6666667   0.0000000), wk =   0.0092593
        k(  212) = (  -0.1666667   1.5000000   0.1666667), wk =   0.0092593
        k(  213) = (  -0.3333333   1.3333333   0.3333333), wk =   0.0092593
        k(  214) = (  -0.5000000   1.1666667   0.5000000), wk =   0.0092593
        k(  215) = (  -0.6666667   1.0000000   0.6666667), wk =   0.0092593
        k(  216) = (  -0.8333333   0.8333333   0.8333333), wk =   0.0092593

     Dense  grid:     9257 G-vectors     FFT dimensions: (  32,  32,  32)

     Dynamical RAM for                 wfc:       0.35 MB

     Dynamical RAM for     wfc (w. buffer):      76.42 MB

     Dynamical RAM for           str. fact:       0.14 MB

     Dynamical RAM for           local pot:       0.00 MB

     Dynamical RAM for          nlocal pot:       0.14 MB

     Dynamical RAM for                qrad:       0.14 MB

     Dynamical RAM for          rho,v,vnew:       1.17 MB

     Dynamical RAM for               rhoin:       0.39 MB

     Dynamical RAM for            rho*nmix:       2.26 MB

     Dynamical RAM for           G-vectors:       0.60 MB

     Dynamical RAM for          h,s,v(r/c):       0.29 MB

     Dynamical RAM for          <psi|beta>:       0.00 MB

     Dynamical RAM for                 psi:       1.41 MB

     Dynamical RAM for                hpsi:       1.41 MB

     Dynamical RAM for      wfcinit/wfcrot:       0.71 MB

     Estimated static dynamical RAM per process >      82.80 MB

     Estimated max dynamical RAM per process >      85.92 MB

     Initial potential from superposition of free atoms

     starting charge    7.99901, renormalised to    8.00000
     Starting wfcs are    8 randomized atomic wfcs +   12 random wfcs

     total cpu time spent up to now is        2.9 secs

     Self-consistent Calculation

     iteration #  1     ecut=    40.00 Ry     beta= 0.60
     Davidson diagonalization with overlap
     ethr =  1.00E-02,  avg # of iterations =  5.7

     Threshold (ethr) on eigenvalues was too large:
     Diagonalizing with lowered threshold

     Davidson diagonalization with overlap
     ethr =  8.79E-04,  avg # of iterations =  1.3

     total cpu time spent up to now is       27.9 secs

     total energy              =     -15.82711809 Ry
     Harris-Foulkes estimate   =     -15.84930722 Ry
     estimated scf accuracy    <       0.07017006 Ry

     iteration #  2     ecut=    40.00 Ry     beta= 0.60
     Davidson diagonalization with overlap
     ethr =  8.77E-04,  avg # of iterations =  1.1

     total cpu time spent up to now is       34.6 secs

     total energy              =     -15.82917365 Ry
     Harris-Foulkes estimate   =     -15.83030786 Ry
     estimated scf accuracy    <       0.00517405 Ry

     iteration #  3     ecut=    40.00 Ry     beta= 0.60
     Davidson diagonalization with overlap
     ethr =  6.47E-05,  avg # of iterations =  3.9

     total cpu time spent up to now is       42.4 secs

     total energy              =     -15.82937465 Ry
     Harris-Foulkes estimate   =     -15.82939088 Ry
     estimated scf accuracy    <       0.00012763 Ry

     iteration #  4     ecut=    40.00 Ry     beta= 0.60
     Davidson diagonalization with overlap
     ethr =  1.60E-06,  avg # of iterations =  3.4

     total cpu time spent up to now is       50.8 secs

     End of self-consistent calculation

          k = 0.0000 0.0000 0.0000 (  1139 PWs)   bands (ev):

    -5.8455   6.0976   6.0976   6.1032   8.6266   8.6414   8.6414   9.3731
    13.7624  13.8301  13.8301  17.2035  17.2170  17.2170  21.0909  28.7638
    28.7707  28.7707  29.8461  29.8461

     occupation numbers 
     1.0000   1.0000   1.0000   1.0000   0.0000   0.0000   0.0000   0.0000
     0.0000   0.0000   0.0000   0.0000   0.0000   0.0000   0.0000   0.0000
     0.0000   0.0000   0.0000   0.0000

          k =-0.1667 0.1667-0.5000 (  1151 PWs)   bands (ev):

    -4.5415   1.6656   4.0985   4.3412   7.9941  10.1042  10.5663  11.1491
    15.0781  15.1416  16.3166  18.7572  19.7052  21.1606  22.0058  22.8949
    25.6423  26.4653  27.4369  29.0418

     occupation numbers 
     1.0000   1.0000   1.0000   1.0000   0.0000   0.0000   0.0000   0.0000
     0.0000   0.0000   0.0000   0.0000   0.0000   0.0000   0.0000   0.0000
     0.0000   0.0000   0.0000   0.0000

          k =-0.3333 0.3333-1.0000 (  1141 PWs)   bands (ev):

    -2.5655  -0.6437   1.6333   3.9750   7.5834  11.8159  12.5367  13.0883
    13.4086  13.7263  20.2693  20.8327  21.5575  21.6694  22.5750  23.3919
    24.0920  25.7027  27.9385  28.5156

     occupation numbers 
     1.0000   1.0000   1.0000   1.0000   0.0000   0.0000   0.0000   0.0000
     0.0000   0.0000   0.0000   0.0000   0.0000   0.0000   0.0000   0.0000
     0.0000   0.0000   0.0000   0.0000

          k =-0.5000 0.5000-1.5000 (  1158 PWs)   bands (ev):

    -3.4989  -0.8842   4.8980   4.8980   7.5647   9.4021   9.4021  13.6105
    16.5967  16.5967  17.2045  17.3733  17.3733  18.8101  24.9186  25.7903
    27.4786  27.4786  27.6185  27.6186

     occupation numbers 
     1.0000   1.0000   1.0000   1.0000   0.0000   0.0000   0.0000   0.0000
     0.0000   0.0000   0.0000   0.0000   0.0000   0.0000   0.0000   0.0000
     0.0000   0.0000   0.0000   0.0000

          k =-0.6667 0.6667-2.0000 (  1141 PWs)   bands (ev):

    -2.5655  -0.6437   1.6333   3.9750   7.5834  11.8159  12.5367  13.0883
    13.4086  13.7263  20.2693  20.8327  21.5575  21.6694  22.5750  23.3919
    24.0920  25.7027  27.9385  28.5156

     occupation numbers 
     1.0000   1.0000   1.0000   1.0000   0.0000   0.0000   0.0000   0.0000
     0.0000   0.0000   0.0000   0.0000   0.0000   0.0000   0.0000   0.0000
     0.0000   0.0000   0.0000   0.0000

          k =-0.8333 0.8333-2.5000 (  1151 PWs)   bands (ev):

    -4.5415   1.6656   4.0985   4.3412   7.9941  10.1042  10.5663  11.1491
    15.0781  15.1416  16.3166  18.7572  19.7052  21.1606  22.0058  22.8949
    25.6423  26.4653  27.4369  29.0418

     occupation numbers 
     1.0000   1.0000   1.0000   1.0000   0.0000   0.0000   0.0000   0.0000
     0.0000   0.0000   0.0000   0.0000   0.0000   0.0000   0.0000   0.0000
     0.0000   0.0000   0.0000   0.0000

          k =-0.1667 0.1667 0.1667 (  1167 PWs)   bands (ev):

    -5.4837   3.7209   5.6462   5.6462   8.3792   9.2846   9.2846  11.4416
    13.1718  13.1718  14.9244  16.5525  19.1042  19.1042  23.0895  25.8259
    25.8259  26.2723  29.5487  29.5487

     occupation numbers 
     1.0000   1.0000   1.0000   1.0000   0.0000   0.0000   0.0000   0.0000
     0.0000   0.0000   0.0000   0.0000   0.0000   0.0000   0.0000   0.0000
     0.0000   0.0000   0.0000   0.0000

          k =-0.3333 0.3333-0.3333 (  1149 PWs)   bands (ev):

    -4.4619   0.7535   5.0918   5.0961   7.8067   9.5670   9.5866  13.7842
    14.0444  14.0486  14.9847  19.4596  20.5743  20.5749  22.5120  23.6259
    23.6320  27.6320  29.6639  29.6728

     occupation numbers 
     1.0000   1.0000   1.0000   1.0000   0.0000   0.0000   0.0000   0.0000
     0.0000   0.0000   0.0000   0.0000   0.0000   0.0000   0.0000   0.0000
     0.0000   0.0000   0.0000   0.0000

          k =-0.5000 0.5000-0.8333 (  1156 PWs)   bands (ev):

    -3.7286   0.0902   3.0302   4.7944   8.4852  10.1532  10.3061  13.2650
    13.3852  15.3704  17.4004  18.7429  20.7927  21.3515  22.1187  23.7897
    25.7870  27.5157  27.9727  28.6754

     occupation numbers 
     1.0000   1.0000   1.0000   1.0000   0.0000   0.0000   0.0000   0.0000
     0.0000   0.0000   0.0000   0.0000   0.0000   0.0000   0.0000   0.0000
     0.0000   0.0000   0.0000   0.0000

          k =-0.6667 0.6667-1.3333 (  1149 PWs)   bands (ev):

    -4.4643   0.7630   5.0961   5.0961   7.7882   9.5718   9.5718  13.7782
    14.0559  14.0559  14.9856  19.4611  20.5837  20.5837  22.5124  23.6306
    23.6306  27.6253  29.6647  29.6648

     occupation numbers 
     1.0000   1.0000   1.0000   1.0000   0.0000   0.0000   0.0000   0.0000
     0.0000   0.0000   0.0000   0.0000   0.0000   0.0000   0.0000   0.0000
     0.0000   0.0000   0.0000   0.0000

          k =-0.8333 0.8333-1.8333 (  1149 PWs)   bands (ev):

    -2.7692  -0.4324   2.4255   3.5296   7.0765   8.7480  13.4795  13.4959
    16.5790  16.7326  18.3672  18.7507  20.6034  21.6717  21.9209  24.4280
    24.5908  25.3054  26.3932  28.2449

     occupation numbers 
     1.0000   1.0000   1.0000   1.0000   0.0000   0.0000   0.0000   0.0000
     0.0000   0.0000   0.0000   0.0000   0.0000   0.0000   0.0000   0.0000
     0.0000   0.0000   0.0000   0.0000

          k =-1.0000 1.0000-2.3333 (  1150 PWs)   bands (ev):

    -3.9367   1.1161   3.6656   3.6663   6.7492   8.0066  13.3003  13.3067
    15.7327  15.9621  18.9334  19.4254  19.4362  20.9986  22.2094  22.3596
    22.3607  24.6122  28.5617  30.1134

     occupation numbers 
     1.0000   1.0000   1.0000   1.0000   0.0000   0.0000   0.0000   0.0000
     0.0000   0.0000   0.0000   0.0000   0.0000   0.0000   0.0000   0.0000
     0.0000   0.0000   0.0000   0.0000

          k =-0.3333 0.3333 0.3333 (  1149 PWs)   bands (ev):

    -4.4643   0.7630   5.0961   5.0961   7.7882   9.5718   9.5718  13.7782
    14.0559  14.0559  14.9856  19.4611  20.5837  20.5837  22.5124  23.6306
    23.6306  27.6253  29.6648  29.6648

     occupation numbers 
     1.0000   1.0000   1.0000   1.0000   0.0000   0.0000   0.0000   0.0000
     0.0000   0.0000   0.0000   0.0000   0.0000   0.0000   0.0000   0.0000
     0.0000   0.0000   0.0000   0.0000

          k =-0.5000 0.5000-0.1667 (  1156 PWs)   bands (ev):

    -3.7286   0.0902   3.0302   4.7944   8.4852  10.1532  10.3061  13.2650
    13.3852  15.3704  17.4004  18.7429  20.7927  21.3514  22.1187  23.7897
    25.7871  27.5157  27.9727  28.6754

     occupation numbers 
     1.0000   1.0000   1.0000   1.0000   0.0000   0.0000   0.0000   0.0000
     0.0000   0.0000   0.0000   0.0000   0.0000   0.0000   0.0000   0.0000
     0.0000   0.0000   0.0000   0.0000

          k =-0.6667 0.6667-0.6667 (  1149 PWs)   bands (ev):

    -4.4619   0.7535   5.0918   5.0961   7.8067   9.5670   9.5866  13.7842
    14.0444  14.0486  14.9847  19.4596  20.5743  20.5749  22.5120  23.6259
    23.6320  27.6320  29.6639  29.6729

     occupation numbers 
     1.0000   1.0000   1.0000   1.0000   0.0000   0.0000   0.0000   0.0000
     0.0000   0.0000   0.0000   0.0000   0.0000   0.0000   0.0000   0.0000
     0.0000   0.0000   0.0000   0.0000

          k =-0.8333 0.8333-1.1667 (  1167 PWs)   bands (ev):

    -5.4837   3.7209   5.6462   5.6462   8.3792   9.2846   9.2846  11.4416
    13.1718  13.1718  14.9244  16.5525  19.1042  19.1042  23.0896  25.8259
    25.8259  26.2723  29.5487  29.5487

     occupation numbers 
     1.0000   1.0000   1.0000   1.0000   0.0000   0.0000   0.0000   0.0000
     0.0000   0.0000   0.0000   0.0000   0.0000   0.0000   0.0000   0.0000
     0.0000   0.0000   0.0000   0.0000

          k =-1.0000 1.0000-1.6667 (  1150 PWs)   bands (ev):

    -3.9367   1.1161   3.6656   3.6663   6.7492   8.0066  13.3003  13.3067
    15.7327  15.9621  18.9334  19.4254  19.4362  20.9986  22.2094  22.3596
    22.3607  24.6122  28.5617  30.1133

     occupation numbers 
     1.0000   1.0000   1.0000   1.0000   0.0000   0.0000   0.0000   0.0000
     0.0000   0.0000   0.0000   0.0000   0.0000   0.0000   0.0000   0.0000
     0.0000   0.0000   0.0000   0.0000

          k =-1.1667 1.1667-2.1667 (  1149 PWs)   bands (ev):

    -2.7692  -0.4324   2.4255   3.5296   7.0765   8.7480  13.4795  13.4959
    16.5790  16.7325  18.3672  18.7507  20.6034  21.6717  21.9209  24.4280
    24.5908  25.3054  26.3932  28.2450

     occupation numbers 
     1.0000   1.0000   1.0000   1.0000   0.0000   0.0000   0.0000   0.0000
     0.0000   0.0000   0.0000   0.0000   0.0000   0.0000   0.0000   0.0000
     0.0000   0.0000   0.0000   0.0000

          k =-0.5000 0.5000 0.5000 (  1158 PWs)   bands (ev):

    -3.4989  -0.8842   4.8980   4.8980   7.5647   9.4021   9.4021  13.6105
    16.5967  16.5967  17.2045  17.3733  17.3733  18.8101  24.9186  25.7903
    27.4786  27.4786  27.6185  27.6186

     occupation numbers 
     1.0000   1.0000   1.0000   1.0000   0.0000   0.0000   0.0000   0.0000
     0.0000   0.0000   0.0000   0.0000   0.0000   0.0000   0.0000   0.0000
     0.0000   0.0000   0.0000   0.0000

          k =-0.6667 0.6667-0.0000 (  1141 PWs)   bands (ev):

    -2.5655  -0.6437   1.6333   3.9750   7.5834  11.8159  12.5367  13.0883
    13.4086  13.7263  20.2693  20.8327  21.5575  21.6694  22.5750  23.3919
    24.0920  25.7027  27.9385  28.5156

     occupation numbers 
     1.0000   1.0000   1.0000   1.0000   0.0000   0.0000   0.0000   0.0000
     0.0000   0.0000   0.0000   0.0000   0.0000   0.0000   0.0000   0.0000
     0.0000   0.0000   0.0000   0.0000

          k =-0.8333 0.8333-0.5000 (  1151 PWs)   bands (ev):

    -4.5415   1.6656   4.0985   4.3412   7.9941  10.1042  10.5663  11.1491
    15.0781  15.1416  16.3166  18.7572  19.7052  21.1606  22.0058  22.8949
    25.6423  26.4653  27.4370  29.0418

     occupation numbers 
     1.0000   1.0000   1.0000   1.0000   0.0000   0.0000   0.0000   0.0000
     0.0000   0.0000   0.0000   0.0000   0.0000   0.0000   0.0000   0.0000
     0.0000   0.0000   0.0000   0.0000

          k =-1.0000 1.0000-1.0000 (  1139 PWs)   bands (ev):

    -5.8455   6.0976   6.0976   6.1032   8.6266   8.6414   8.6414   9.3731
    13.7624  13.8301  13.8301  17.2035  17.2170  17.2170  21.0909  28.7638
    28.7707  28.7707  29.8460  29.8460

     occupation numbers 
     1.0000   1.0000   1.0000   1.0000   0.0000   0.0000   0.0000   0.0000
     0.0000   0.0000   0.0000   0.0000   0.0000   0.0000   0.0000   0.0000
     0.0000   0.0000   0.0000   0.0000

          k =-1.1667 1.1667-1.5000 (  1151 PWs)   bands (ev):

    -4.5415   1.6656   4.0985   4.3412   7.9941  10.1042  10.5663  11.1491
    15.0781  15.1416  16.3166  18.7572  19.7052  21.1606  22.0058  22.8949
    25.6423  26.4653  27.4369  29.0418

     occupation numbers 
     1.0000   1.0000   1.0000   1.0000   0.0000   0.0000   0.0000   0.0000
     0.0000   0.0000   0.0000   0.0000   0.0000   0.0000   0.0000   0.0000
     0.0000   0.0000   0.0000   0.0000

          k =-1.3333 1.3333-2.0000 (  1141 PWs)   bands (ev):

    -2.5655  -0.6437   1.6333   3.9750   7.5834  11.8159  12.5367  13.0883
    13.4086  13.7263  20.2693  20.8327  21.5575  21.6694  22.5750  23.3919
    24.0920  25.7027  27.9385  28.5156

     occupation numbers 
     1.0000   1.0000   1.0000   1.0000   0.0000   0.0000   0.0000   0.0000
     0.0000   0.0000   0.0000   0.0000   0.0000   0.0000   0.0000   0.0000
     0.0000   0.0000   0.0000   0.0000

          k =-0.6667 0.6667 0.6667 (  1149 PWs)   bands (ev):

    -4.4643   0.7630   5.0961   5.0961   7.7882   9.5718   9.5718  13.7782
    14.0559  14.0559  14.9856  19.4611  20.5837  20.5837  22.5124  23.6306
    23.6306  27.6253  29.6647  29.6647

     occupation numbers 
     1.0000   1.0000   1.0000   1.0000   0.0000   0.0000   0.0000   0.0000
     0.0000   0.0000   0.0000   0.0000   0.0000   0.0000   0.0000   0.0000
     0.0000   0.0000   0.0000   0.0000

          k =-0.8333 0.8333 0.1667 (  1149 PWs)   bands (ev):

    -2.7692  -0.4324   2.4255   3.5296   7.0765   8.7480  13.4795  13.4959
    16.5790  16.7325  18.3672  18.7507  20.6034  21.6717  21.9209  24.4280
    24.5908  25.3054  26.3932  28.2451

     occupation numbers 
     1.0000   1.0000   1.0000   1.0000   0.0000   0.0000   0.0000   0.0000
     0.0000   0.0000   0.0000   0.0000   0.0000   0.0000   0.0000   0.0000
     0.0000   0.0000   0.0000   0.0000

          k =-1.0000 1.0000-0.3333 (  1150 PWs)   bands (ev):

    -3.9367   1.1161   3.6656   3.6663   6.7492   8.0066  13.3003  13.3067
    15.7327  15.9621  18.9334  19.4254  19.4362  20.9986  22.2094  22.3596
    22.3607  24.6122  28.5617  30.1133

     occupation numbers 
     1.0000   1.0000   1.0000   1.0000   0.0000   0.0000   0.0000   0.0000
     0.0000   0.0000   0.0000   0.0000   0.0000   0.0000   0.0000   0.0000
     0.0000   0.0000   0.0000   0.0000

          k =-1.1667 1.1667-0.8333 (  1167 PWs)   bands (ev):

    -5.4837   3.7209   5.6462   5.6462   8.3792   9.2846   9.2846  11.4416
    13.1718  13.1718  14.9244  16.5525  19.1042  19.1042  23.0895  25.8259
    25.8259  26.2723  29.5487  29.5487

     occupation numbers 
     1.0000   1.0000   1.0000   1.0000   0.0000   0.0000   0.0000   0.0000
     0.0000   0.0000   0.0000   0.0000   0.0000   0.0000   0.0000   0.0000
     0.0000   0.0000   0.0000   0.0000

          k =-1.3333 1.3333-1.3333 (  1149 PWs)   bands (ev):

    -4.4619   0.7535   5.0918   5.0961   7.8067   9.5670   9.5866  13.7842
    14.0444  14.0486  14.9847  19.4596  20.5743  20.5749  22.5120  23.6259
    23.6320  27.6320  29.6639  29.6728

     occupation numbers 
     1.0000   1.0000   1.0000   1.0000   0.0000   0.0000   0.0000   0.0000
     0.0000   0.0000   0.0000   0.0000   0.0000   0.0000   0.0000   0.0000
     0.0000   0.0000   0.0000   0.0000

          k =-1.5000 1.5000-1.8333 (  1156 PWs)   bands (ev):

    -3.7286   0.0902   3.0302   4.7944   8.4852  10.1532  10.3061  13.2650
    13.3852  15.3704  17.4004  18.7429  20.7927  21.3514  22.1187  23.7897
    25.7871  27.5157  27.9727  28.6755

     occupation numbers 
     1.0000   1.0000   1.0000   1.0000   0.0000   0.0000   0.0000   0.0000
     0.0000   0.0000   0.0000   0.0000   0.0000   0.0000   0.0000   0.0000
     0.0000   0.0000   0.0000   0.0000

          k =-0.8333 0.8333 0.8333 (  1167 PWs)   bands (ev):

    -5.4837   3.7209   5.6462   5.6462   8.3792   9.2846   9.2846  11.4416
    13.1718  13.1718  14.9244  16.5525  19.1042  19.1042  23.0896  25.8259
    25.8259  26.2723  29.5487  29.5487

     occupation numbers 
     1.0000   1.0000   1.0000   1.0000   0.0000   0.0000   0.0000   0.0000
     0.0000   0.0000   0.0000   0.0000   0.0000   0.0000   0.0000   0.0000
     0.0000   0.0000   0.0000   0.0000

          k =-1.0000 1.0000 0.3333 (  1150 PWs)   bands (ev):

    -3.9367   1.1161   3.6656   3.6663   6.7492   8.0066  13.3003  13.3067
    15.7327  15.9621  18.9334  19.4254  19.4362  20.9986  22.2094  22.3596
    22.3607  24.6122  28.5617  30.1134

     occupation numbers 
     1.0000   1.0000   1.0000   1.0000   0.0000   0.0000   0.0000   0.0000
     0.0000   0.0000   0.0000   0.0000   0.0000   0.0000   0.0000   0.0000
     0.0000   0.0000   0.0000   0.0000

          k =-1.1667 1.1667-0.1667 (  1149 PWs)   bands (ev):

    -2.7692  -0.4324   2.4255   3.5296   7.0765   8.7480  13.4795  13.4959
    16.5790  16.7325  18.3672  18.7507  20.6034  21.6717  21.9209  24.4280
    24.5908  25.3054  26.3932  28.2450

     occupation numbers 
     1.0000   1.0000   1.0000   1.0000   0.0000   0.0000   0.0000   0.0000
     0.0000   0.0000   0.0000   0.0000   0.0000   0.0000   0.0000   0.0000
     0.0000   0.0000   0.0000   0.0000

          k =-1.3333 1.3333-0.6667 (  1149 PWs)   bands (ev):

    -4.4643   0.7630   5.0961   5.0961   7.7882   9.5718   9.5718  13.7782
    14.0559  14.0559  14.9856  19.4611  20.5837  20.5837  22.5124  23.6306
    23.6306  27.6253  29.6648  29.6648

     occupation numbers 
     1.0000   1.0000   1.0000   1.0000   0.0000   0.0000   0.0000   0.0000
     0.0000   0.0000   0.0000   0.0000   0.0000   0.0000   0.0000   0.0000
     0.0000   0.0000   0.0000   0.0000

          k =-1.5000 1.5000-1.1667 (  1156 PWs)   bands (ev):

    -3.7286   0.0902   3.0302   4.7944   8.4852  10.1532  10.3061  13.2650
    13.3852  15.3704  17.4004  18.7429  20.7927  21.3514  22.1187  23.7897
    25.7871  27.5157  27.9727  28.6754

     occupation numbers 
     1.0000   1.0000   1.0000   1.0000   0.0000   0.0000   0.0000   0.0000
     0.0000   0.0000   0.0000   0.0000   0.0000   0.0000   0.0000   0.0000
     0.0000   0.0000   0.0000   0.0000

          k =-1.6667 1.6667-1.6667 (  1149 PWs)   bands (ev):

    -4.4619   0.7535   5.0918   5.0961   7.8067   9.5670   9.5866  13.7842
    14.0444  14.0486  14.9847  19.4596  20.5743  20.5749  22.5120  23.6259
    23.6320  27.6320  29.6639  29.6728

     occupation numbers 
     1.0000   1.0000   1.0000   1.0000   0.0000   0.0000   0.0000   0.0000
     0.0000   0.0000   0.0000   0.0000   0.0000   0.0000   0.0000   0.0000
     0.0000   0.0000   0.0000   0.0000

          k = 0.5000 0.1667 0.1667 (  1151 PWs)   bands (ev):

    -4.5415   1.6656   4.0985   4.3412   7.9941  10.1042  10.5663  11.1491
    15.0781  15.1416  16.3166  18.7572  19.7052  21.1606  22.0058  22.8949
    25.6423  26.4653  27.4369  29.0417

     occupation numbers 
     1.0000   1.0000   1.0000   1.0000   0.0000   0.0000   0.0000   0.0000
     0.0000   0.0000   0.0000   0.0000   0.0000   0.0000   0.0000   0.0000
     0.0000   0.0000   0.0000   0.0000

          k = 0.3333 0.3333-0.3333 (  1149 PWs)   bands (ev):

    -4.4619   0.7535   5.0918   5.0961   7.8067   9.5670   9.5866  13.7842
    14.0444  14.0486  14.9847  19.4596  20.5743  20.5749  22.5120  23.6259
    23.6320  27.6321  29.6640  29.6730

     occupation numbers 
     1.0000   1.0000   1.0000   1.0000   0.0000   0.0000   0.0000   0.0000
     0.0000   0.0000   0.0000   0.0000   0.0000   0.0000   0.0000   0.0000
     0.0000   0.0000   0.0000   0.0000

          k = 0.1667 0.5000-0.8333 (  1152 PWs)   bands (ev):

    -2.5484  -0.7338   2.0476   3.3116   9.3857   9.6041  12.1201  12.5385
    13.5777  17.0944  17.9341  19.3890  22.1330  22.7300  22.8873  23.6934
    24.3507  26.2796  26.6775  27.4989

     occupation numbers 
     1.0000   1.0000   1.0000   1.0000   0.0000   0.0000   0.0000   0.0000
     0.0000   0.0000   0.0000   0.0000   0.0000   0.0000   0.0000   0.0000
     0.0000   0.0000   0.0000   0.0000

          k = 0.0000 0.6667-1.3333 (  1141 PWs)   bands (ev):

    -2.5655  -0.6437   1.6333   3.9750   7.5834  11.8159  12.5367  13.0883
    13.4086  13.7264  20.2693  20.8327  21.5575  21.6694  22.5750  23.3919
    24.0920  25.7027  27.9385  28.5156

     occupation numbers 
     1.0000   1.0000   1.0000   1.0000   0.0000   0.0000   0.0000   0.0000
     0.0000   0.0000   0.0000   0.0000   0.0000   0.0000   0.0000   0.0000
     0.0000   0.0000   0.0000   0.0000

          k =-0.1667 0.8333-1.8333 (  1149 PWs)   bands (ev):

    -2.7692  -0.4324   2.4255   3.5296   7.0765   8.7480  13.4795  13.4959
    16.5790  16.7325  18.3672  18.7507  20.6034  21.6717  21.9209  24.4280
    24.5908  25.3054  26.3932  28.2450

     occupation numbers 
     1.0000   1.0000   1.0000   1.0000   0.0000   0.0000   0.0000   0.0000
     0.0000   0.0000   0.0000   0.0000   0.0000   0.0000   0.0000   0.0000
     0.0000   0.0000   0.0000   0.0000

          k =-0.3333 1.0000-2.3333 (  1141 PWs)   bands (ev):

    -2.5594  -0.6546   1.6339   3.9746   7.5979  11.8116  12.5271  13.0839
    13.4161  13.7268  20.2743  20.8339  21.5587  21.6674  22.5709  23.3829
    24.0953  25.7048  27.9357  28.5089

     occupation numbers 
     1.0000   1.0000   1.0000   1.0000   0.0000   0.0000   0.0000   0.0000
     0.0000   0.0000   0.0000   0.0000   0.0000   0.0000   0.0000   0.0000
     0.0000   0.0000   0.0000   0.0000

          k = 0.3333 0.3333 0.3333 (  1149 PWs)   bands (ev):

    -4.4619   0.7535   5.0918   5.0961   7.8067   9.5670   9.5866  13.7842
    14.0444  14.0486  14.9847  19.4596  20.5743  20.5749  22.5120  23.6259
    23.6320  27.6320  29.6639  29.6728

     occupation numbers 
     1.0000   1.0000   1.0000   1.0000   0.0000   0.0000   0.0000   0.0000
     0.0000   0.0000   0.0000   0.0000   0.0000   0.0000   0.0000   0.0000
     0.0000   0.0000   0.0000   0.0000

          k = 0.1667 0.5000-0.1667 (  1151 PWs)   bands (ev):

    -4.5415   1.6656   4.0985   4.3412   7.9941  10.1042  10.5663  11.1491
    15.0781  15.1416  16.3166  18.7572  19.7052  21.1606  22.0058  22.8949
    25.6423  26.4653  27.4369  29.0417

     occupation numbers 
     1.0000   1.0000   1.0000   1.0000   0.0000   0.0000   0.0000   0.0000
     0.0000   0.0000   0.0000   0.0000   0.0000   0.0000   0.0000   0.0000
     0.0000   0.0000   0.0000   0.0000

          k = 0.0000 0.6667-0.6667 (  1141 PWs)   bands (ev):

    -2.5594  -0.6546   1.6339   3.9746   7.5979  11.8116  12.5271  13.0839
    13.4161  13.7268  20.2743  20.8339  21.5587  21.6674  22.5709  23.3829
    24.0953  25.7048  27.9357  28.5090

     occupation numbers 
     1.0000   1.0000   1.0000   1.0000   0.0000   0.0000   0.0000   0.0000
     0.0000   0.0000   0.0000   0.0000   0.0000   0.0000   0.0000   0.0000
     0.0000   0.0000   0.0000   0.0000

          k =-0.1667 0.8333-1.1667 (  1149 PWs)   bands (ev):

    -2.7692  -0.4324   2.4255   3.5296   7.0765   8.7480  13.4795  13.4959
    16.5790  16.7325  18.3672  18.7507  20.6034  21.6717  21.9209  24.4280
    24.5908  25.3054  26.3932  28.2449

     occupation numbers 
     1.0000   1.0000   1.0000   1.0000   0.0000   0.0000   0.0000   0.0000
     0.0000   0.0000   0.0000   0.0000   0.0000   0.0000   0.0000   0.0000
     0.0000   0.0000   0.0000   0.0000

          k =-0.3333 1.0000-1.6667 (  1141 PWs)   bands (ev):

    -2.5655  -0.6437   1.6333   3.9750   7.5834  11.8159  12.5367  13.0883
    13.4086  13.7263  20.2693  20.8327  21.5575  21.6694  22.5750  23.3919
    24.0920  25.7027  27.9385  28.5156

     occupation numbers 
     1.0000   1.0000   1.0000   1.0000   0.0000   0.0000   0.0000   0.0000
     0.0000   0.0000   0.0000   0.0000   0.0000   0.0000   0.0000   0.0000
     0.0000   0.0000   0.0000   0.0000

          k =-0.5000 1.1667-2.1667 (  1152 PWs)   bands (ev):

    -2.5484  -0.7338   2.0476   3.3116   9.3857   9.6041  12.1201  12.5385
    13.5777  17.0944  17.9341  19.3890  22.1331  22.7300  22.8873  23.6934
    24.3507  26.2795  26.6775  27.4989

     occupation numbers 
     1.0000   1.0000   1.0000   1.0000   0.0000   0.0000   0.0000   0.0000
     0.0000   0.0000   0.0000   0.0000   0.0000   0.0000   0.0000   0.0000
     0.0000   0.0000   0.0000   0.0000

          k = 0.1667 0.5000 0.5000 (  1156 PWs)   bands (ev):

    -3.7286   0.0902   3.0302   4.7944   8.4852  10.1532  10.3061  13.2650
    13.3852  15.3704  17.4004  18.7429  20.7927  21.3514  22.1187  23.7897
    25.7871  27.5157  27.9727  28.6754

     occupation numbers 
     1.0000   1.0000   1.0000   1.0000   0.0000   0.0000   0.0000   0.0000
     0.0000   0.0000   0.0000   0.0000   0.0000   0.0000   0.0000   0.0000
     0.0000   0.0000   0.0000   0.0000

          k = 0.0000 0.6667 0.0000 (  1150 PWs)   bands (ev):

    -3.9367   1.1161   3.6655   3.6663   6.7492   8.0066  13.3003  13.3067
    15.7327  15.9621  18.9334  19.4254  19.4362  20.9986  22.2094  22.3596
    22.3607  24.6122  28.5617  30.1133

     occupation numbers 
     1.0000   1.0000   1.0000   1.0000   0.0000   0.0000   0.0000   0.0000
     0.0000   0.0000   0.0000   0.0000   0.0000   0.0000   0.0000   0.0000
     0.0000   0.0000   0.0000   0.0000

          k =-0.1667 0.8333-0.5000 (  1152 PWs)   bands (ev):

    -2.5484  -0.7338   2.0476   3.3116   9.3857   9.6041  12.1201  12.5385
    13.5777  17.0944  17.9341  19.3890  22.1330  22.7300  22.8873  23.6934
    24.3507  26.2795  26.6775  27.4989

     occupation numbers 
     1.0000   1.0000   1.0000   1.0000   0.0000   0.0000   0.0000   0.0000
     0.0000   0.0000   0.0000   0.0000   0.0000   0.0000   0.0000   0.0000
     0.0000   0.0000   0.0000   0.0000

          k =-0.3333 1.0000-1.0000 (  1150 PWs)   bands (ev):

    -3.9367   1.1161   3.6655   3.6663   6.7492   8.0066  13.3003  13.3067
    15.7327  15.9621  18.9334  19.4254  19.4362  20.9986  22.2094  22.3596
    22.3607  24.6122  28.5617  30.1133

     occupation numbers 
     1.0000   1.0000   1.0000   1.0000   0.0000   0.0000   0.0000   0.0000
     0.0000   0.0000   0.0000   0.0000   0.0000   0.0000   0.0000   0.0000
     0.0000   0.0000   0.0000   0.0000

          k =-0.5000 1.1667-1.5000 (  1156 PWs)   bands (ev):

    -3.7286   0.0902   3.0302   4.7944   8.4852  10.1532  10.3061  13.2650
    13.3852  15.3704  17.4004  18.7429  20.7927  21.3514  22.1187  23.7897
    25.7871  27.5157  27.9726  28.6754

     occupation numbers 
     1.0000   1.0000   1.0000   1.0000   0.0000   0.0000   0.0000   0.0000
     0.0000   0.0000   0.0000   0.0000   0.0000   0.0000   0.0000   0.0000
     0.0000   0.0000   0.0000   0.0000

          k =-0.6667 1.3333-2.0000 (  1141 PWs)   bands (ev):

    -2.5594  -0.6546   1.6339   3.9746   7.5979  11.8116  12.5271  13.0839
    13.4161  13.7268  20.2743  20.8339  21.5587  21.6674  22.5709  23.3829
    24.0953  25.7048  27.9357  28.5089

     occupation numbers 
     1.0000   1.0000   1.0000   1.0000   0.0000   0.0000   0.0000   0.0000
     0.0000   0.0000   0.0000   0.0000   0.0000   0.0000   0.0000   0.0000
     0.0000   0.0000   0.0000   0.0000

          k = 0.0000 0.6667 0.6667 (  1141 PWs)   bands (ev):

    -2.5655  -0.6437   1.6333   3.9750   7.5834  11.8159  12.5367  13.0883
    13.4086  13.7264  20.2693  20.8327  21.5575  21.6694  22.5750  23.3919
    24.0920  25.7027  27.9385  28.5156

     occupation numbers 
     1.0000   1.0000   1.0000   1.0000   0.0000   0.0000   0.0000   0.0000
     0.0000   0.0000   0.0000   0.0000   0.0000   0.0000   0.0000   0.0000
     0.0000   0.0000   0.0000   0.0000

          k =-0.1667 0.8333 0.1667 (  1149 PWs)   bands (ev):

    -2.7692  -0.4324   2.4255   3.5296   7.0765   8.7480  13.4795  13.4959
    16.5790  16.7325  18.3672  18.7507  20.6034  21.6717  21.9209  24.4280
    24.5908  25.3054  26.3932  28.2450

     occupation numbers 
     1.0000   1.0000   1.0000   1.0000   0.0000   0.0000   0.0000   0.0000
     0.0000   0.0000   0.0000   0.0000   0.0000   0.0000   0.0000   0.0000
     0.0000   0.0000   0.0000   0.0000

          k =-0.3333 1.0000-0.3333 (  1141 PWs)   bands (ev):

    -2.5594  -0.6546   1.6339   3.9746   7.5979  11.8116  12.5271  13.0839
    13.4161  13.7268  20.2743  20.8339  21.5587  21.6674  22.5709  23.3829
    24.0953  25.7048  27.9357  28.5089

     occupation numbers 
     1.0000   1.0000   1.0000   1.0000   0.0000   0.0000   0.0000   0.0000
     0.0000   0.0000   0.0000   0.0000   0.0000   0.0000   0.0000   0.0000
     0.0000   0.0000   0.0000   0.0000

          k =-0.5000 1.1667-0.8333 (  1151 PWs)   bands (ev):

    -4.5415   1.6656   4.0985   4.3412   7.9941  10.1042  10.5663  11.1491
    15.0781  15.1416  16.3166  18.7572  19.7052  21.1606  22.0058  22.8949
    25.6423  26.4653  27.4369  29.0417

     occupation numbers 
     1.0000   1.0000   1.0000   1.0000   0.0000   0.0000   0.0000   0.0000
     0.0000   0.0000   0.0000   0.0000   0.0000   0.0000   0.0000   0.0000
     0.0000   0.0000   0.0000   0.0000

          k =-0.6667 1.3333-1.3333 (  1149 PWs)   bands (ev):

    -4.4619   0.7535   5.0918   5.0961   7.8067   9.5670   9.5866  13.7842
    14.0444  14.0486  14.9847  19.4596  20.5743  20.5749  22.5120  23.6259
    23.6320  27.6320  29.6639  29.6728

     occupation numbers 
     1.0000   1.0000   1.0000   1.0000   0.0000   0.0000   0.0000   0.0000
     0.0000   0.0000   0.0000   0.0000   0.0000   0.0000   0.0000   0.0000
     0.0000   0.0000   0.0000   0.0000

          k =-0.8333 1.5000-1.8333 (  1152 PWs)   bands (ev):

    -2.5484  -0.7338   2.0476   3.3116   9.3857   9.6041  12.1201  12.5385
    13.5777  17.0944  17.9341  19.3890  22.1330  22.7300  22.8873  23.6934
    24.3507  26.2795  26.6775  27.4989

     occupation numbers 
     1.0000   1.0000   1.0000   1.0000   0.0000   0.0000   0.0000   0.0000
     0.0000   0.0000   0.0000   0.0000   0.0000   0.0000   0.0000   0.0000
     0.0000   0.0000   0.0000   0.0000

          k =-0.1667 0.8333 0.8333 (  1149 PWs)   bands (ev):

    -2.7692  -0.4324   2.4255   3.5296   7.0765   8.7480  13.4795  13.4959
    16.5790  16.7325  18.3672  18.7507  20.6034  21.6717  21.9209  24.4280
    24.5908  25.3054  26.3932  28.2450

     occupation numbers 
     1.0000   1.0000   1.0000   1.0000   0.0000   0.0000   0.0000   0.0000
     0.0000   0.0000   0.0000   0.0000   0.0000   0.0000   0.0000   0.0000
     0.0000   0.0000   0.0000   0.0000

          k =-0.3333 1.0000 0.3333 (  1141 PWs)   bands (ev):

    -2.5655  -0.6437   1.6333   3.9750   7.5834  11.8159  12.5367  13.0883
    13.4086  13.7263  20.2693  20.8327  21.5575  21.6694  22.5750  23.3919
    24.0920  25.7027  27.9385  28.5158

     occupation numbers 
     1.0000   1.0000   1.0000   1.0000   0.0000   0.0000   0.0000   0.0000
     0.0000   0.0000   0.0000   0.0000   0.0000   0.0000   0.0000   0.0000
     0.0000   0.0000   0.0000   0.0000

          k =-0.5000 1.1667-0.1667 (  1152 PWs)   bands (ev):

    -2.5484  -0.7338   2.0476   3.3116   9.3857   9.6041  12.1201  12.5385
    13.5777  17.0944  17.9341  19.3890  22.1331  22.7300  22.8873  23.6934
    24.3507  26.2795  26.6775  27.4989

     occupation numbers 
     1.0000   1.0000   1.0000   1.0000   0.0000   0.0000   0.0000   0.0000
     0.0000   0.0000   0.0000   0.0000   0.0000   0.0000   0.0000   0.0000
     0.0000   0.0000   0.0000   0.0000

          k =-0.6667 1.3333-0.6667 (  1149 PWs)   bands (ev):

    -4.4619   0.7535   5.0918   5.0961   7.8067   9.5670   9.5866  13.7842
    14.0444  14.0486  14.9847  19.4596  20.5743  20.5749  22.5120  23.6259
    23.6320  27.6320  29.6639  29.6728

     occupation numbers 
     1.0000   1.0000   1.0000   1.0000   0.0000   0.0000   0.0000   0.0000
     0.0000   0.0000   0.0000   0.0000   0.0000   0.0000   0.0000   0.0000
     0.0000   0.0000   0.0000   0.0000

          k =-0.8333 1.5000-1.1667 (  1151 PWs)   bands (ev):

    -4.5415   1.6656   4.0985   4.3412   7.9941  10.1042  10.5663  11.1491
    15.0781  15.1416  16.3166  18.7572  19.7052  21.1606  22.0058  22.8949
    25.6423  26.4653  27.4369  29.0417

     occupation numbers 
     1.0000   1.0000   1.0000   1.0000   0.0000   0.0000   0.0000   0.0000
     0.0000   0.0000   0.0000   0.0000   0.0000   0.0000   0.0000   0.0000
     0.0000   0.0000   0.0000   0.0000

          k =-1.0000 1.6667-1.6667 (  1141 PWs)   bands (ev):

    -2.5594  -0.6546   1.6339   3.9746   7.5979  11.8116  12.5271  13.0839
    13.4161  13.7268  20.2743  20.8339  21.5587  21.6674  22.5709  23.3829
    24.0953  25.7048  27.9357  28.5089

     occupation numbers 
     1.0000   1.0000   1.0000   1.0000   0.0000   0.0000   0.0000   0.0000
     0.0000   0.0000   0.0000   0.0000   0.0000   0.0000   0.0000   0.0000
     0.0000   0.0000   0.0000   0.0000

          k =-0.3333 1.0000 1.0000 (  1150 PWs)   bands (ev):

    -3.9367   1.1161   3.6655   3.6663   6.7492   8.0066  13.3003  13.3067
    15.7327  15.9621  18.9334  19.4254  19.4362  20.9986  22.2094  22.3596
    22.3607  24.6122  28.5617  30.1134

     occupation numbers 
     1.0000   1.0000   1.0000   1.0000   0.0000   0.0000   0.0000   0.0000
     0.0000   0.0000   0.0000   0.0000   0.0000   0.0000   0.0000   0.0000
     0.0000   0.0000   0.0000   0.0000

          k =-0.5000 1.1667 0.5000 (  1156 PWs)   bands (ev):

    -3.7286   0.0902   3.0302   4.7944   8.4852  10.1532  10.3061  13.2650
    13.3852  15.3704  17.4004  18.7429  20.7927  21.3515  22.1187  23.7897
    25.7870  27.5157  27.9727  28.6755

     occupation numbers 
     1.0000   1.0000   1.0000   1.0000   0.0000   0.0000   0.0000   0.0000
     0.0000   0.0000   0.0000   0.0000   0.0000   0.0000   0.0000   0.0000
     0.0000   0.0000   0.0000   0.0000

          k =-0.6667 1.3333 0.0000 (  1141 PWs)   bands (ev):

    -2.5594  -0.6546   1.6339   3.9746   7.5979  11.8116  12.5271  13.0839
    13.4161  13.7268  20.2743  20.8340  21.5587  21.6674  22.5709  23.3829
    24.0954  25.7048  27.9357  28.5089

     occupation numbers 
     1.0000   1.0000   1.0000   1.0000   0.0000   0.0000   0.0000   0.0000
     0.0000   0.0000   0.0000   0.0000   0.0000   0.0000   0.0000   0.0000
     0.0000   0.0000   0.0000   0.0000

          k =-0.8333 1.5000-0.5000 (  1156 PWs)   bands (ev):

    -3.7286   0.0902   3.0302   4.7944   8.4852  10.1532  10.3061  13.2650
    13.3852  15.3704  17.4004  18.7429  20.7927  21.3514  22.1187  23.7897
    25.7870  27.5157  27.9727  28.6754

     occupation numbers 
     1.0000   1.0000   1.0000   1.0000   0.0000   0.0000   0.0000   0.0000
     0.0000   0.0000   0.0000   0.0000   0.0000   0.0000   0.0000   0.0000
     0.0000   0.0000   0.0000   0.0000

          k =-1.0000 1.6667-1.0000 (  1150 PWs)   bands (ev):

    -3.9367   1.1161   3.6655   3.6663   6.7492   8.0066  13.3003  13.3067
    15.7327  15.9621  18.9334  19.4254  19.4362  20.9986  22.2094  22.3596
    22.3607  24.6122  28.5617  30.1133

     occupation numbers 
     1.0000   1.0000   1.0000   1.0000   0.0000   0.0000   0.0000   0.0000
     0.0000   0.0000   0.0000   0.0000   0.0000   0.0000   0.0000   0.0000
     0.0000   0.0000   0.0000   0.0000

          k =-1.1667 1.8333-1.5000 (  1152 PWs)   bands (ev):

    -2.5484  -0.7338   2.0476   3.3116   9.3857   9.6041  12.1201  12.5385
    13.5777  17.0944  17.9341  19.3890  22.1331  22.7300  22.8873  23.6934
    24.3507  26.2796  26.6775  27.4989

     occupation numbers 
     1.0000   1.0000   1.0000   1.0000   0.0000   0.0000   0.0000   0.0000
     0.0000   0.0000   0.0000   0.0000   0.0000   0.0000   0.0000   0.0000
     0.0000   0.0000   0.0000   0.0000

          k = 1.0000 0.3333 0.3333 (  1141 PWs)   bands (ev):

    -2.5655  -0.6437   1.6333   3.9750   7.5834  11.8159  12.5367  13.0883
    13.4086  13.7263  20.2693  20.8327  21.5575  21.6694  22.5750  23.3919
    24.0920  25.7027  27.9385  28.5157

     occupation numbers 
     1.0000   1.0000   1.0000   1.0000   0.0000   0.0000   0.0000   0.0000
     0.0000   0.0000   0.0000   0.0000   0.0000   0.0000   0.0000   0.0000
     0.0000   0.0000   0.0000   0.0000

          k = 0.8333 0.5000-0.1667 (  1152 PWs)   bands (ev):

    -2.5484  -0.7338   2.0476   3.3116   9.3857   9.6041  12.1201  12.5385
    13.5777  17.0944  17.9341  19.3890  22.1331  22.7300  22.8873  23.6934
    24.3507  26.2795  26.6775  27.4989

     occupation numbers 
     1.0000   1.0000   1.0000   1.0000   0.0000   0.0000   0.0000   0.0000
     0.0000   0.0000   0.0000   0.0000   0.0000   0.0000   0.0000   0.0000
     0.0000   0.0000   0.0000   0.0000

          k = 0.6667 0.6667-0.6667 (  1149 PWs)   bands (ev):

    -4.4619   0.7535   5.0918   5.0961   7.8067   9.5670   9.5866  13.7842
    14.0444  14.0486  14.9847  19.4596  20.5743  20.5749  22.5120  23.6259
    23.6320  27.6321  29.6639  29.6728

     occupation numbers 
     1.0000   1.0000   1.0000   1.0000   0.0000   0.0000   0.0000   0.0000
     0.0000   0.0000   0.0000   0.0000   0.0000   0.0000   0.0000   0.0000
     0.0000   0.0000   0.0000   0.0000

          k = 0.5000 0.8333-1.1667 (  1151 PWs)   bands (ev):

    -4.5415   1.6656   4.0985   4.3412   7.9941  10.1042  10.5663  11.1491
    15.0781  15.1416  16.3166  18.7572  19.7052  21.1606  22.0058  22.8949
    25.6423  26.4653  27.4369  29.0417

     occupation numbers 
     1.0000   1.0000   1.0000   1.0000   0.0000   0.0000   0.0000   0.0000
     0.0000   0.0000   0.0000   0.0000   0.0000   0.0000   0.0000   0.0000
     0.0000   0.0000   0.0000   0.0000

          k = 0.3333 1.0000-1.6667 (  1141 PWs)   bands (ev):

    -2.5594  -0.6546   1.6339   3.9746   7.5979  11.8116  12.5271  13.0839
    13.4161  13.7268  20.2743  20.8339  21.5587  21.6674  22.5709  23.3829
    24.0953  25.7048  27.9357  28.5089

     occupation numbers 
     1.0000   1.0000   1.0000   1.0000   0.0000   0.0000   0.0000   0.0000
     0.0000   0.0000   0.0000   0.0000   0.0000   0.0000   0.0000   0.0000
     0.0000   0.0000   0.0000   0.0000

          k = 0.1667 1.1667-2.1667 (  1149 PWs)   bands (ev):

    -2.7692  -0.4324   2.4255   3.5296   7.0765   8.7480  13.4795  13.4959
    16.5790  16.7325  18.3672  18.7507  20.6034  21.6717  21.9209  24.4280
    24.5908  25.3054  26.3932  28.2449

     occupation numbers 
     1.0000   1.0000   1.0000   1.0000   0.0000   0.0000   0.0000   0.0000
     0.0000   0.0000   0.0000   0.0000   0.0000   0.0000   0.0000   0.0000
     0.0000   0.0000   0.0000   0.0000

          k = 0.8333 0.5000 0.5000 (  1156 PWs)   bands (ev):

    -3.7286   0.0902   3.0302   4.7944   8.4852  10.1532  10.3061  13.2650
    13.3852  15.3704  17.4004  18.7429  20.7927  21.3514  22.1187  23.7897
    25.7871  27.5157  27.9727  28.6755

     occupation numbers 
     1.0000   1.0000   1.0000   1.0000   0.0000   0.0000   0.0000   0.0000
     0.0000   0.0000   0.0000   0.0000   0.0000   0.0000   0.0000   0.0000
     0.0000   0.0000   0.0000   0.0000

          k = 0.6667 0.6667 0.0000 (  1141 PWs)   bands (ev):

    -2.5594  -0.6546   1.6339   3.9746   7.5979  11.8116  12.5271  13.0839
    13.4161  13.7268  20.2743  20.8339  21.5587  21.6674  22.5709  23.3829
    24.0953  25.7048  27.9357  28.5089

     occupation numbers 
     1.0000   1.0000   1.0000   1.0000   0.0000   0.0000   0.0000   0.0000
     0.0000   0.0000   0.0000   0.0000   0.0000   0.0000   0.0000   0.0000
     0.0000   0.0000   0.0000   0.0000

          k = 0.5000 0.8333-0.5000 (  1156 PWs)   bands (ev):

    -3.7286   0.0902   3.0302   4.7944   8.4852  10.1532  10.3061  13.2650
    13.3852  15.3704  17.4004  18.7429  20.7927  21.3514  22.1187  23.7897
    25.7871  27.5157  27.9727  28.6754

     occupation numbers 
     1.0000   1.0000   1.0000   1.0000   0.0000   0.0000   0.0000   0.0000
     0.0000   0.0000   0.0000   0.0000   0.0000   0.0000   0.0000   0.0000
     0.0000   0.0000   0.0000   0.0000

          k = 0.3333 1.0000-1.0000 (  1150 PWs)   bands (ev):

    -3.9367   1.1161   3.6655   3.6663   6.7492   8.0066  13.3003  13.3067
    15.7327  15.9621  18.9334  19.4254  19.4362  20.9986  22.2094  22.3596
    22.3607  24.6122  28.5617  30.1134

     occupation numbers 
     1.0000   1.0000   1.0000   1.0000   0.0000   0.0000   0.0000   0.0000
     0.0000   0.0000   0.0000   0.0000   0.0000   0.0000   0.0000   0.0000
     0.0000   0.0000   0.0000   0.0000

          k = 0.1667 1.1667-1.5000 (  1152 PWs)   bands (ev):

    -2.5484  -0.7338   2.0476   3.3116   9.3857   9.6041  12.1201  12.5385
    13.5777  17.0944  17.9341  19.3890  22.1331  22.7300  22.8873  23.6934
    24.3507  26.2796  26.6775  27.4989

     occupation numbers 
     1.0000   1.0000   1.0000   1.0000   0.0000   0.0000   0.0000   0.0000
     0.0000   0.0000   0.0000   0.0000   0.0000   0.0000   0.0000   0.0000
     0.0000   0.0000   0.0000   0.0000

          k = 0.0000 1.3333-2.0000 (  1150 PWs)   bands (ev):

    -3.9367   1.1161   3.6655   3.6663   6.7492   8.0066  13.3003  13.3067
    15.7327  15.9621  18.9334  19.4254  19.4362  20.9986  22.2094  22.3596
    22.3607  24.6122  28.5617  30.1133

     occupation numbers 
     1.0000   1.0000   1.0000   1.0000   0.0000   0.0000   0.0000   0.0000
     0.0000   0.0000   0.0000   0.0000   0.0000   0.0000   0.0000   0.0000
     0.0000   0.0000   0.0000   0.0000

          k = 0.6667 0.6667 0.6667 (  1149 PWs)   bands (ev):

    -4.4619   0.7535   5.0918   5.0961   7.8067   9.5670   9.5866  13.7842
    14.0444  14.0486  14.9847  19.4596  20.5743  20.5749  22.5120  23.6259
    23.6320  27.6320  29.6641  29.6728

     occupation numbers 
     1.0000   1.0000   1.0000   1.0000   0.0000   0.0000   0.0000   0.0000
     0.0000   0.0000   0.0000   0.0000   0.0000   0.0000   0.0000   0.0000
     0.0000   0.0000   0.0000   0.0000

          k = 0.5000 0.8333 0.1667 (  1152 PWs)   bands (ev):

    -2.5484  -0.7338   2.0476   3.3116   9.3857   9.6041  12.1201  12.5385
[...]
     0.0000   0.0000   0.0000   0.0000

          k = 2.5000 0.8333 0.8333 (  1151 PWs)   bands (ev):

    -4.5415   1.6656   4.0985   4.3412   7.9941  10.1042  10.5663  11.1491
    15.0781  15.1416  16.3166  18.7572  19.7052  21.1606  22.0058  22.8949
    25.6423  26.4653  27.4370  29.0417

     occupation numbers 
     1.0000   1.0000   1.0000   1.0000   0.0000   0.0000   0.0000   0.0000
     0.0000   0.0000   0.0000   0.0000   0.0000   0.0000   0.0000   0.0000
     0.0000   0.0000   0.0000   0.0000

          k = 2.3333 1.0000 0.3333 (  1141 PWs)   bands (ev):

    -2.5594  -0.6546   1.6339   3.9746   7.5979  11.8116  12.5271  13.0839
    13.4161  13.7268  20.2743  20.8339  21.5587  21.6674  22.5709  23.3829
    24.0953  25.7048  27.9357  28.5089

     occupation numbers 
     1.0000   1.0000   1.0000   1.0000   0.0000   0.0000   0.0000   0.0000
     0.0000   0.0000   0.0000   0.0000   0.0000   0.0000   0.0000   0.0000
     0.0000   0.0000   0.0000   0.0000

          k = 2.1667 1.1667-0.1667 (  1149 PWs)   bands (ev):

    -2.7692  -0.4324   2.4255   3.5296   7.0765   8.7480  13.4795  13.4959
    16.5790  16.7325  18.3672  18.7507  20.6034  21.6717  21.9209  24.4280
    24.5908  25.3054  26.3932  28.2449

     occupation numbers 
     1.0000   1.0000   1.0000   1.0000   0.0000   0.0000   0.0000   0.0000
     0.0000   0.0000   0.0000   0.0000   0.0000   0.0000   0.0000   0.0000
     0.0000   0.0000   0.0000   0.0000

          k = 2.0000 1.3333-0.6667 (  1141 PWs)   bands (ev):

    -2.5655  -0.6437   1.6333   3.9750   7.5834  11.8159  12.5367  13.0883
    13.4086  13.7263  20.2693  20.8327  21.5575  21.6694  22.5750  23.3919
    24.0920  25.7027  27.9385  28.5156

     occupation numbers 
     1.0000   1.0000   1.0000   1.0000   0.0000   0.0000   0.0000   0.0000
     0.0000   0.0000   0.0000   0.0000   0.0000   0.0000   0.0000   0.0000
     0.0000   0.0000   0.0000   0.0000

          k = 1.8333 1.5000-1.1667 (  1152 PWs)   bands (ev):

    -2.5484  -0.7338   2.0476   3.3116   9.3857   9.6041  12.1201  12.5385
    13.5777  17.0944  17.9341  19.3890  22.1331  22.7300  22.8873  23.6934
    24.3507  26.2795  26.6775  27.4989

     occupation numbers 
     1.0000   1.0000   1.0000   1.0000   0.0000   0.0000   0.0000   0.0000
     0.0000   0.0000   0.0000   0.0000   0.0000   0.0000   0.0000   0.0000
     0.0000   0.0000   0.0000   0.0000

          k = 1.6667 1.6667-1.6667 (  1149 PWs)   bands (ev):

    -4.4619   0.7535   5.0918   5.0961   7.8067   9.5670   9.5866  13.7842
    14.0444  14.0486  14.9847  19.4596  20.5743  20.5749  22.5120  23.6259
    23.6320  27.6320  29.6639  29.6728

     occupation numbers 
     1.0000   1.0000   1.0000   1.0000   0.0000   0.0000   0.0000   0.0000
     0.0000   0.0000   0.0000   0.0000   0.0000   0.0000   0.0000   0.0000
     0.0000   0.0000   0.0000   0.0000

          k = 2.3333 1.0000 1.0000 (  1150 PWs)   bands (ev):

    -3.9367   1.1161   3.6655   3.6663   6.7492   8.0066  13.3003  13.3067
    15.7327  15.9621  18.9334  19.4254  19.4362  20.9986  22.2094  22.3596
    22.3607  24.6122  28.5617  30.1134

     occupation numbers 
     1.0000   1.0000   1.0000   1.0000   0.0000   0.0000   0.0000   0.0000
     0.0000   0.0000   0.0000   0.0000   0.0000   0.0000   0.0000   0.0000
     0.0000   0.0000   0.0000   0.0000

          k = 2.1667 1.1667 0.5000 (  1152 PWs)   bands (ev):

    -2.5484  -0.7338   2.0476   3.3116   9.3857   9.6041  12.1201  12.5385
    13.5777  17.0944  17.9341  19.3890  22.1330  22.7300  22.8873  23.6934
    24.3507  26.2795  26.6775  27.4989

     occupation numbers 
     1.0000   1.0000   1.0000   1.0000   0.0000   0.0000   0.0000   0.0000
     0.0000   0.0000   0.0000   0.0000   0.0000   0.0000   0.0000   0.0000
     0.0000   0.0000   0.0000   0.0000

          k = 2.0000 1.3333-0.0000 (  1150 PWs)   bands (ev):

    -3.9367   1.1161   3.6655   3.6663   6.7492   8.0066  13.3003  13.3067
    15.7327  15.9621  18.9334  19.4254  19.4362  20.9986  22.2094  22.3596
    22.3607  24.6122  28.5617  30.1134

     occupation numbers 
     1.0000   1.0000   1.0000   1.0000   0.0000   0.0000   0.0000   0.0000
     0.0000   0.0000   0.0000   0.0000   0.0000   0.0000   0.0000   0.0000
     0.0000   0.0000   0.0000   0.0000

          k = 1.8333 1.5000-0.5000 (  1156 PWs)   bands (ev):

    -3.7286   0.0902   3.0302   4.7944   8.4852  10.1532  10.3061  13.2650
    13.3852  15.3704  17.4004  18.7429  20.7927  21.3514  22.1187  23.7897
    25.7871  27.5157  27.9727  28.6755

     occupation numbers 
     1.0000   1.0000   1.0000   1.0000   0.0000   0.0000   0.0000   0.0000
     0.0000   0.0000   0.0000   0.0000   0.0000   0.0000   0.0000   0.0000
     0.0000   0.0000   0.0000   0.0000

          k = 1.6667 1.6667-1.0000 (  1141 PWs)   bands (ev):

    -2.5594  -0.6546   1.6339   3.9746   7.5979  11.8116  12.5271  13.0839
    13.4161  13.7268  20.2743  20.8339  21.5587  21.6674  22.5709  23.3829
    24.0953  25.7048  27.9357  28.5089

     occupation numbers 
     1.0000   1.0000   1.0000   1.0000   0.0000   0.0000   0.0000   0.0000
     0.0000   0.0000   0.0000   0.0000   0.0000   0.0000   0.0000   0.0000
     0.0000   0.0000   0.0000   0.0000

          k = 1.5000 1.8333-1.5000 (  1156 PWs)   bands (ev):

    -3.7286   0.0902   3.0302   4.7944   8.4852  10.1532  10.3061  13.2650
    13.3852  15.3704  17.4004  18.7429  20.7927  21.3514  22.1187  23.7897
    25.7871  27.5157  27.9727  28.6754

     occupation numbers 
     1.0000   1.0000   1.0000   1.0000   0.0000   0.0000   0.0000   0.0000
     0.0000   0.0000   0.0000   0.0000   0.0000   0.0000   0.0000   0.0000
     0.0000   0.0000   0.0000   0.0000

          k = 2.1667 1.1667 1.1667 (  1149 PWs)   bands (ev):

    -2.7692  -0.4324   2.4255   3.5296   7.0765   8.7480  13.4795  13.4959
    16.5790  16.7326  18.3672  18.7507  20.6034  21.6717  21.9209  24.4280
    24.5908  25.3054  26.3932  28.2450

     occupation numbers 
     1.0000   1.0000   1.0000   1.0000   0.0000   0.0000   0.0000   0.0000
     0.0000   0.0000   0.0000   0.0000   0.0000   0.0000   0.0000   0.0000
     0.0000   0.0000   0.0000   0.0000

          k = 2.0000 1.3333 0.6667 (  1141 PWs)   bands (ev):

    -2.5594  -0.6546   1.6339   3.9746   7.5979  11.8116  12.5271  13.0839
    13.4161  13.7268  20.2743  20.8340  21.5587  21.6674  22.5709  23.3829
    24.0954  25.7048  27.9357  28.5089

     occupation numbers 
     1.0000   1.0000   1.0000   1.0000   0.0000   0.0000   0.0000   0.0000
     0.0000   0.0000   0.0000   0.0000   0.0000   0.0000   0.0000   0.0000
     0.0000   0.0000   0.0000   0.0000

          k = 1.8333 1.5000 0.1667 (  1151 PWs)   bands (ev):

    -4.5415   1.6656   4.0985   4.3412   7.9941  10.1042  10.5663  11.1491
    15.0781  15.1416  16.3166  18.7572  19.7052  21.1606  22.0058  22.8949
    25.6423  26.4653  27.4370  29.0417

     occupation numbers 
     1.0000   1.0000   1.0000   1.0000   0.0000   0.0000   0.0000   0.0000
     0.0000   0.0000   0.0000   0.0000   0.0000   0.0000   0.0000   0.0000
     0.0000   0.0000   0.0000   0.0000

          k = 1.6667 1.6667-0.3333 (  1149 PWs)   bands (ev):

    -4.4619   0.7535   5.0918   5.0961   7.8067   9.5670   9.5866  13.7842
    14.0444  14.0486  14.9847  19.4596  20.5743  20.5749  22.5120  23.6259
    23.6320  27.6320  29.6639  29.6728

     occupation numbers 
     1.0000   1.0000   1.0000   1.0000   0.0000   0.0000   0.0000   0.0000
     0.0000   0.0000   0.0000   0.0000   0.0000   0.0000   0.0000   0.0000
     0.0000   0.0000   0.0000   0.0000

          k = 1.5000 1.8333-0.8333 (  1152 PWs)   bands (ev):

    -2.5484  -0.7338   2.0476   3.3116   9.3857   9.6041  12.1201  12.5385
    13.5777  17.0944  17.9341  19.3890  22.1331  22.7300  22.8873  23.6934
    24.3507  26.2795  26.6775  27.4989

     occupation numbers 
     1.0000   1.0000   1.0000   1.0000   0.0000   0.0000   0.0000   0.0000
     0.0000   0.0000   0.0000   0.0000   0.0000   0.0000   0.0000   0.0000
     0.0000   0.0000   0.0000   0.0000

          k = 1.3333 2.0000-1.3333 (  1141 PWs)   bands (ev):

    -2.5655  -0.6437   1.6333   3.9750   7.5834  11.8159  12.5367  13.0883
    13.4086  13.7263  20.2693  20.8327  21.5575  21.6694  22.5750  23.3919
    24.0920  25.7027  27.9385  28.5156

     occupation numbers 
     1.0000   1.0000   1.0000   1.0000   0.0000   0.0000   0.0000   0.0000
     0.0000   0.0000   0.0000   0.0000   0.0000   0.0000   0.0000   0.0000
     0.0000   0.0000   0.0000   0.0000

          k = 2.0000 1.3333 1.3333 (  1141 PWs)   bands (ev):

    -2.5655  -0.6437   1.6333   3.9750   7.5834  11.8159  12.5367  13.0883
    13.4086  13.7263  20.2693  20.8327  21.5575  21.6694  22.5750  23.3919
    24.0920  25.7027  27.9385  28.5156

     occupation numbers 
     1.0000   1.0000   1.0000   1.0000   0.0000   0.0000   0.0000   0.0000
     0.0000   0.0000   0.0000   0.0000   0.0000   0.0000   0.0000   0.0000
     0.0000   0.0000   0.0000   0.0000

          k = 1.8333 1.5000 0.8333 (  1152 PWs)   bands (ev):

    -2.5484  -0.7338   2.0476   3.3116   9.3857   9.6041  12.1201  12.5385
    13.5777  17.0944  17.9341  19.3890  22.1330  22.7300  22.8873  23.6934
    24.3507  26.2796  26.6775  27.4989

     occupation numbers 
     1.0000   1.0000   1.0000   1.0000   0.0000   0.0000   0.0000   0.0000
     0.0000   0.0000   0.0000   0.0000   0.0000   0.0000   0.0000   0.0000
     0.0000   0.0000   0.0000   0.0000

          k = 1.6667 1.6667 0.3333 (  1149 PWs)   bands (ev):

    -4.4619   0.7535   5.0918   5.0961   7.8067   9.5670   9.5866  13.7842
    14.0444  14.0486  14.9847  19.4596  20.5743  20.5749  22.5120  23.6259
    23.6320  27.6320  29.6639  29.6728

     occupation numbers 
     1.0000   1.0000   1.0000   1.0000   0.0000   0.0000   0.0000   0.0000
     0.0000   0.0000   0.0000   0.0000   0.0000   0.0000   0.0000   0.0000
     0.0000   0.0000   0.0000   0.0000

          k = 1.5000 1.8333-0.1667 (  1151 PWs)   bands (ev):

    -4.5415   1.6656   4.0985   4.3412   7.9941  10.1042  10.5663  11.1491
    15.0781  15.1416  16.3166  18.7572  19.7052  21.1606  22.0058  22.8949
    25.6423  26.4653  27.4369  29.0418

     occupation numbers 
     1.0000   1.0000   1.0000   1.0000   0.0000   0.0000   0.0000   0.0000
     0.0000   0.0000   0.0000   0.0000   0.0000   0.0000   0.0000   0.0000
     0.0000   0.0000   0.0000   0.0000

          k = 1.3333 2.0000-0.6667 (  1141 PWs)   bands (ev):

    -2.5594  -0.6546   1.6339   3.9746   7.5979  11.8116  12.5271  13.0839
    13.4161  13.7268  20.2743  20.8339  21.5587  21.6674  22.5709  23.3829
    24.0953  25.7048  27.9357  28.5089

     occupation numbers 
     1.0000   1.0000   1.0000   1.0000   0.0000   0.0000   0.0000   0.0000
     0.0000   0.0000   0.0000   0.0000   0.0000   0.0000   0.0000   0.0000
     0.0000   0.0000   0.0000   0.0000

          k = 1.1667 2.1667-1.1667 (  1149 PWs)   bands (ev):

    -2.7692  -0.4324   2.4255   3.5296   7.0765   8.7480  13.4795  13.4959
    16.5790  16.7326  18.3672  18.7507  20.6034  21.6717  21.9209  24.4280
    24.5908  25.3054  26.3932  28.2449

     occupation numbers 
     1.0000   1.0000   1.0000   1.0000   0.0000   0.0000   0.0000   0.0000
     0.0000   0.0000   0.0000   0.0000   0.0000   0.0000   0.0000   0.0000
     0.0000   0.0000   0.0000   0.0000

          k = 1.8333 1.5000 1.5000 (  1156 PWs)   bands (ev):

    -3.7286   0.0902   3.0302   4.7944   8.4852  10.1532  10.3061  13.2650
    13.3852  15.3704  17.4004  18.7429  20.7927  21.3514  22.1187  23.7897
    25.7870  27.5157  27.9727  28.6754

     occupation numbers 
     1.0000   1.0000   1.0000   1.0000   0.0000   0.0000   0.0000   0.0000
     0.0000   0.0000   0.0000   0.0000   0.0000   0.0000   0.0000   0.0000
     0.0000   0.0000   0.0000   0.0000

          k = 1.6667 1.6667 1.0000 (  1141 PWs)   bands (ev):

    -2.5594  -0.6546   1.6339   3.9746   7.5979  11.8116  12.5271  13.0839
    13.4161  13.7268  20.2743  20.8340  21.5587  21.6674  22.5709  23.3829
    24.0954  25.7048  27.9357  28.5089

     occupation numbers 
     1.0000   1.0000   1.0000   1.0000   0.0000   0.0000   0.0000   0.0000
     0.0000   0.0000   0.0000   0.0000   0.0000   0.0000   0.0000   0.0000
     0.0000   0.0000   0.0000   0.0000

          k = 1.5000 1.8333 0.5000 (  1156 PWs)   bands (ev):

    -3.7286   0.0902   3.0302   4.7944   8.4852  10.1532  10.3061  13.2650
    13.3852  15.3704  17.4004  18.7429  20.7927  21.3514  22.1187  23.7897
    25.7871  27.5157  27.9727  28.6755

     occupation numbers 
     1.0000   1.0000   1.0000   1.0000   0.0000   0.0000   0.0000   0.0000
     0.0000   0.0000   0.0000   0.0000   0.0000   0.0000   0.0000   0.0000
     0.0000   0.0000   0.0000   0.0000

          k = 1.3333 2.0000 0.0000 (  1150 PWs)   bands (ev):

    -3.9367   1.1161   3.6655   3.6663   6.7492   8.0066  13.3003  13.3067
    15.7327  15.9621  18.9334  19.4254  19.4362  20.9986  22.2094  22.3596
    22.3607  24.6122  28.5617  30.1134

     occupation numbers 
     1.0000   1.0000   1.0000   1.0000   0.0000   0.0000   0.0000   0.0000
     0.0000   0.0000   0.0000   0.0000   0.0000   0.0000   0.0000   0.0000
     0.0000   0.0000   0.0000   0.0000

          k = 1.1667 2.1667-0.5000 (  1152 PWs)   bands (ev):

    -2.5484  -0.7338   2.0476   3.3116   9.3857   9.6041  12.1201  12.5385
    13.5777  17.0944  17.9341  19.3890  22.1330  22.7300  22.8873  23.6934
    24.3507  26.2795  26.6775  27.4989

     occupation numbers 
     1.0000   1.0000   1.0000   1.0000   0.0000   0.0000   0.0000   0.0000
     0.0000   0.0000   0.0000   0.0000   0.0000   0.0000   0.0000   0.0000
     0.0000   0.0000   0.0000   0.0000

          k = 1.0000 2.3333-1.0000 (  1150 PWs)   bands (ev):

    -3.9367   1.1161   3.6656   3.6663   6.7492   8.0066  13.3003  13.3067
    15.7327  15.9621  18.9334  19.4254  19.4362  20.9986  22.2094  22.3596
    22.3607  24.6122  28.5617  30.1134

     occupation numbers 
     1.0000   1.0000   1.0000   1.0000   0.0000   0.0000   0.0000   0.0000
     0.0000   0.0000   0.0000   0.0000   0.0000   0.0000   0.0000   0.0000
     0.0000   0.0000   0.0000   0.0000

          k = 1.6667 1.6667 1.6667 (  1149 PWs)   bands (ev):

    -4.4619   0.7535   5.0918   5.0961   7.8067   9.5670   9.5866  13.7842
    14.0444  14.0486  14.9847  19.4596  20.5743  20.5749  22.5120  23.6259
    23.6320  27.6320  29.6639  29.6729

     occupation numbers 
     1.0000   1.0000   1.0000   1.0000   0.0000   0.0000   0.0000   0.0000
     0.0000   0.0000   0.0000   0.0000   0.0000   0.0000   0.0000   0.0000
     0.0000   0.0000   0.0000   0.0000

          k = 1.5000 1.8333 1.1667 (  1152 PWs)   bands (ev):

    -2.5484  -0.7338   2.0476   3.3116   9.3857   9.6041  12.1201  12.5385
    13.5777  17.0944  17.9341  19.3890  22.1330  22.7300  22.8873  23.6934
    24.3507  26.2796  26.6775  27.4989

     occupation numbers 
     1.0000   1.0000   1.0000   1.0000   0.0000   0.0000   0.0000   0.0000
     0.0000   0.0000   0.0000   0.0000   0.0000   0.0000   0.0000   0.0000
     0.0000   0.0000   0.0000   0.0000

          k = 1.3333 2.0000 0.6667 (  1141 PWs)   bands (ev):

    -2.5655  -0.6437   1.6333   3.9750   7.5834  11.8159  12.5367  13.0883
    13.4086  13.7263  20.2693  20.8327  21.5575  21.6694  22.5750  23.3919
    24.0920  25.7027  27.9385  28.5156

     occupation numbers 
     1.0000   1.0000   1.0000   1.0000   0.0000   0.0000   0.0000   0.0000
     0.0000   0.0000   0.0000   0.0000   0.0000   0.0000   0.0000   0.0000
     0.0000   0.0000   0.0000   0.0000

          k = 1.1667 2.1667 0.1667 (  1149 PWs)   bands (ev):

    -2.7692  -0.4324   2.4255   3.5296   7.0765   8.7480  13.4795  13.4959
    16.5790  16.7325  18.3672  18.7507  20.6034  21.6717  21.9209  24.4280
    24.5908  25.3054  26.3932  28.2450

     occupation numbers 
     1.0000   1.0000   1.0000   1.0000   0.0000   0.0000   0.0000   0.0000
     0.0000   0.0000   0.0000   0.0000   0.0000   0.0000   0.0000   0.0000
     0.0000   0.0000   0.0000   0.0000

          k = 1.0000 2.3333-0.3333 (  1141 PWs)   bands (ev):

    -2.5594  -0.6546   1.6339   3.9746   7.5979  11.8116  12.5271  13.0839
    13.4161  13.7268  20.2743  20.8339  21.5587  21.6674  22.5709  23.3829
    24.0953  25.7048  27.9357  28.5089

     occupation numbers 
     1.0000   1.0000   1.0000   1.0000   0.0000   0.0000   0.0000   0.0000
     0.0000   0.0000   0.0000   0.0000   0.0000   0.0000   0.0000   0.0000
     0.0000   0.0000   0.0000   0.0000

          k = 0.8333 2.5000-0.8333 (  1151 PWs)   bands (ev):

    -4.5415   1.6656   4.0985   4.3412   7.9941  10.1042  10.5663  11.1491
    15.0781  15.1416  16.3166  18.7572  19.7052  21.1606  22.0058  22.8949
    25.6423  26.4653  27.4370  29.0417

     occupation numbers 
     1.0000   1.0000   1.0000   1.0000   0.0000   0.0000   0.0000   0.0000
     0.0000   0.0000   0.0000   0.0000   0.0000   0.0000   0.0000   0.0000
     0.0000   0.0000   0.0000   0.0000

     highest occupied, lowest unoccupied level (ev):     6.1032    6.7492

!    total energy              =     -15.82937888 Ry
     Harris-Foulkes estimate   =     -15.82937893 Ry
     estimated scf accuracy    <       0.00000018 Ry

     The total energy is the sum of the following terms:

     one-electron contribution =       4.65865837 Ry
     hartree contribution      =       1.12311805 Ry
     xc contribution           =      -4.81022569 Ry
     ewald contribution        =     -16.80092960 Ry

     convergence has been achieved in   4 iterations

     Writing output data file silicon.save/

     init_run     :      2.69s CPU      2.80s WALL (       1 calls)
     electrons    :     47.25s CPU     48.00s WALL (       1 calls)

     Called by init_run:
     wfcinit      :      2.62s CPU      2.71s WALL (       1 calls)
     wfcinit:atom :      0.05s CPU      0.05s WALL (     216 calls)
     wfcinit:wfcr :      2.37s CPU      2.46s WALL (     216 calls)
     potinit      :      0.00s CPU      0.00s WALL (       1 calls)
     hinit0       :      0.06s CPU      0.07s WALL (       1 calls)

     Called by electrons:
     c_bands      :     42.29s CPU     42.98s WALL (       5 calls)
     sum_band     :      4.93s CPU      4.95s WALL (       5 calls)
     v_of_rho     :      0.01s CPU      0.01s WALL (       5 calls)
     v_h          :      0.00s CPU      0.00s WALL (       5 calls)
     v_xc         :      0.01s CPU      0.01s WALL (       5 calls)
     mix_rho      :      0.00s CPU      0.00s WALL (       5 calls)

     Called by c_bands:
     init_us_2    :      0.36s CPU      0.37s WALL (    2376 calls)
     cegterg      :     41.87s CPU     42.55s WALL (    1080 calls)

     Called by sum_band:

     Called by *egterg:
     h_psi        :     27.03s CPU     27.61s WALL (    4620 calls)
     g_psi        :      0.26s CPU      0.26s WALL (    3324 calls)
     cdiaghg      :      3.07s CPU      3.10s WALL (    4188 calls)
     cegterg:over :      5.43s CPU      5.48s WALL (    3324 calls)
     cegterg:upda :      3.55s CPU      3.60s WALL (    3324 calls)
     cegterg:last :      2.63s CPU      2.66s WALL (    1296 calls)

     Called by h_psi:
     h_psi:pot    :     26.69s CPU     27.23s WALL (    4620 calls)
     h_psi:calbec :      0.86s CPU      0.87s WALL (    4620 calls)
     vloc_psi     :     24.99s CPU     25.51s WALL (    4620 calls)
     add_vuspsi   :      0.81s CPU      0.83s WALL (    4620 calls)

     General routines
     calbec       :      0.85s CPU      0.86s WALL (    4620 calls)
     fft          :      0.01s CPU      0.01s WALL (      15 calls)
     ffts         :      0.00s CPU      0.00s WALL (       5 calls)
     fftw         :     23.68s CPU     24.13s WALL (  143964 calls)

     Parallel routines

     PWSCF        :     50.07s CPU     51.52s WALL


   This run was terminated on:  23:42:56   9Feb2024            

=------------------------------------------------------------------------------=
   JOB DONE.
=------------------------------------------------------------------------------=
