
     Program PWSCF v.6.4.1 starts on 31Aug2023 at  1:31: 2 

     This program is part of the open-source Quantum ESPRESSO suite
     for quantum simulation of materials; please cite
         "P. Giannozzi et al., J. Phys.:Condens. Matter 21 395502 (2009);
         "P. Giannozzi et al., J. Phys.:Condens. Matter 29 465901 (2017);
          URL http://www.quantum-espresso.org", 
     in publications or presentations arising from this work. More details at
     http://www.quantum-espresso.org/quote

     Parallel version (MPI), running on     1 processors

     MPI processes distributed on     1 nodes
     Waiting for input...
     Reading input from standard input

     Current dimensions of program PWSCF are:
     Max number of different atomic species (ntypx) = 10
     Max number of k-points (npk) =  40000
     Max angular momentum in pseudopotentials (lmaxx) =  3

     Atomic positions and unit cell read from directory:
     ./tmp/silicon.save/


     Subspace diagonalization in iterative solution of the eigenvalue problem:
     a serial algorithm will be used

     Message from routine setup:
     no reason to have ecutrho>4*ecutwfc

     G-vector sticks info
     --------------------
     sticks:   dense  smooth     PW     G-vecs:    dense   smooth      PW
     Sum        1453     733    211                36325    12939    2085



     bravais-lattice index     =            2
     lattice parameter (alat)  =      10.2600  a.u.
     unit-cell volume          =     270.0114 (a.u.)^3
     number of atoms/cell      =            2
     number of atomic types    =            1
     number of electrons       =         8.00
     number of Kohn-Sham states=            8
     kinetic-energy cutoff     =      50.0000  Ry
     charge density cutoff     =     400.0000  Ry
     Exchange-correlation      = SLA PZ NOGX NOGC ( 1  1  0  0 0 0)

     celldm(1)=  10.260000  celldm(2)=   0.000000  celldm(3)=   0.000000
     celldm(4)=   0.000000  celldm(5)=   0.000000  celldm(6)=   0.000000

     crystal axes: (cart. coord. in units of alat)
               a(1) = (  -0.500000   0.000000   0.500000 )  
               a(2) = (   0.000000   0.500000   0.500000 )  
               a(3) = (  -0.500000   0.500000   0.000000 )  

     reciprocal axes: (cart. coord. in units 2 pi/alat)
               b(1) = ( -1.000000 -1.000000  1.000000 )  
               b(2) = (  1.000000  1.000000  1.000000 )  
               b(3) = ( -1.000000  1.000000 -1.000000 )  


     PseudoPot. # 1 for Si read from file:
     /home/meyn/q-e-qe-7.1/pseudo/Si.pz-vbc.UPF
     MD5 check sum: 9f25e6ff280f3123e9b3a84715b2e9c9
     Pseudo is Norm-conserving, Zval =  4.0
     Generated by new atomic code, or converted to UPF format
     Using radial grid of  431 points,  2 beta functions with: 
                l(1) =   0
                l(2) =   1

     atomic species   valence    mass     pseudopotential
        Si             4.00    28.08600     Si( 1.00)

     48 Sym. Ops., with inversion, found (24 have fractional translation)


                                    s                        frac. trans.

      isym =  1     identity                                     

 cryst.   s( 1) = (     1          0          0      )
                  (     0          1          0      )
                  (     0          0          1      )

 cart.    s( 1) = (  1.0000000  0.0000000  0.0000000 )
                  (  0.0000000  1.0000000  0.0000000 )
                  (  0.0000000  0.0000000  1.0000000 )


      isym =  2     180 deg rotation - cart. axis [0,0,1]        

 cryst.   s( 2) = (     0          1         -1      )
                  (     1          0         -1      )
                  (     0          0         -1      )

 cart.    s( 2) = ( -1.0000000  0.0000000  0.0000000 )
                  (  0.0000000 -1.0000000  0.0000000 )
                  (  0.0000000  0.0000000  1.0000000 )


      isym =  3     180 deg rotation - cart. axis [0,1,0]        

 cryst.   s( 3) = (    -1          0          0      )
                  (    -1          0          1      )
                  (    -1          1          0      )

 cart.    s( 3) = ( -1.0000000  0.0000000  0.0000000 )
                  (  0.0000000  1.0000000  0.0000000 )
                  (  0.0000000  0.0000000 -1.0000000 )


      isym =  4     180 deg rotation - cart. axis [1,0,0]        

 cryst.   s( 4) = (     0         -1          1      )
                  (     0         -1          0      )
                  (     1         -1          0      )

 cart.    s( 4) = (  1.0000000  0.0000000  0.0000000 )
                  (  0.0000000 -1.0000000  0.0000000 )
                  (  0.0000000  0.0000000 -1.0000000 )


      isym =  5     180 deg rotation - cart. axis [1,1,0]        

 cryst.   s( 5) = (     0         -1          0      )    f =(  0.2500000 )
                  (    -1          0          0      )       (  0.2500000 )
                  (     0          0         -1      )       (  0.2500000 )

 cart.    s( 5) = (  0.0000000  1.0000000  0.0000000 )    f =( -0.2500000 )
                  (  1.0000000  0.0000000  0.0000000 )       (  0.2500000 )
                  (  0.0000000  0.0000000 -1.0000000 )       (  0.2500000 )


      isym =  6     180 deg rotation - cart. axis [1,-1,0]       

 cryst.   s( 6) = (    -1          0          1      )    f =(  0.2500000 )
                  (     0         -1          1      )       (  0.2500000 )
                  (     0          0          1      )       (  0.2500000 )

 cart.    s( 6) = (  0.0000000 -1.0000000  0.0000000 )    f =( -0.2500000 )
                  ( -1.0000000  0.0000000  0.0000000 )       (  0.2500000 )
                  (  0.0000000  0.0000000 -1.0000000 )       (  0.2500000 )


      isym =  7      90 deg rotation - cart. axis [0,0,-1]       

 cryst.   s( 7) = (     0          1          0      )    f =(  0.2500000 )
                  (     0          1         -1      )       (  0.2500000 )
                  (    -1          1          0      )       (  0.2500000 )

 cart.    s( 7) = (  0.0000000  1.0000000  0.0000000 )    f =( -0.2500000 )
                  ( -1.0000000  0.0000000  0.0000000 )       (  0.2500000 )
                  (  0.0000000  0.0000000  1.0000000 )       (  0.2500000 )


      isym =  8      90 deg rotation - cart. axis [0,0,1]        

 cryst.   s( 8) = (     1          0         -1      )    f =(  0.2500000 )
                  (     1          0          0      )       (  0.2500000 )
                  (     1         -1          0      )       (  0.2500000 )

 cart.    s( 8) = (  0.0000000 -1.0000000  0.0000000 )    f =( -0.2500000 )
                  (  1.0000000  0.0000000  0.0000000 )       (  0.2500000 )
                  (  0.0000000  0.0000000  1.0000000 )       (  0.2500000 )


      isym =  9     180 deg rotation - cart. axis [1,0,1]        

 cryst.   s( 9) = (    -1          0          0      )    f =(  0.2500000 )
                  (     0          0         -1      )       (  0.2500000 )
                  (     0         -1          0      )       (  0.2500000 )

 cart.    s( 9) = (  0.0000000  0.0000000  1.0000000 )    f =( -0.2500000 )
                  (  0.0000000 -1.0000000  0.0000000 )       (  0.2500000 )
                  (  1.0000000  0.0000000  0.0000000 )       (  0.2500000 )


      isym = 10     180 deg rotation - cart. axis [-1,0,1]       

 cryst.   s(10) = (     1          0          0      )    f =(  0.2500000 )
                  (     1         -1          0      )       (  0.2500000 )
                  (     1          0         -1      )       (  0.2500000 )

 cart.    s(10) = (  0.0000000  0.0000000 -1.0000000 )    f =( -0.2500000 )
                  (  0.0000000 -1.0000000  0.0000000 )       (  0.2500000 )
                  ( -1.0000000  0.0000000  0.0000000 )       (  0.2500000 )


      isym = 11      90 deg rotation - cart. axis [0,1,0]        

 cryst.   s(11) = (     0          1         -1      )    f =(  0.2500000 )
                  (    -1          1          0      )       (  0.2500000 )
                  (     0          1          0      )       (  0.2500000 )

 cart.    s(11) = (  0.0000000  0.0000000  1.0000000 )    f =( -0.2500000 )
                  (  0.0000000  1.0000000  0.0000000 )       (  0.2500000 )
                  ( -1.0000000  0.0000000  0.0000000 )       (  0.2500000 )


      isym = 12      90 deg rotation - cart. axis [0,-1,0]       

 cryst.   s(12) = (     0         -1          1      )    f =(  0.2500000 )
                  (     0          0          1      )       (  0.2500000 )
                  (    -1          0          1      )       (  0.2500000 )

 cart.    s(12) = (  0.0000000  0.0000000 -1.0000000 )    f =( -0.2500000 )
                  (  0.0000000  1.0000000  0.0000000 )       (  0.2500000 )
                  (  1.0000000  0.0000000  0.0000000 )       (  0.2500000 )


      isym = 13     180 deg rotation - cart. axis [0,1,1]        

 cryst.   s(13) = (    -1          1          0      )    f =(  0.2500000 )
                  (     0          1          0      )       (  0.2500000 )
                  (     0          1         -1      )       (  0.2500000 )

 cart.    s(13) = ( -1.0000000  0.0000000  0.0000000 )    f =( -0.2500000 )
                  (  0.0000000  0.0000000  1.0000000 )       (  0.2500000 )
                  (  0.0000000  1.0000000  0.0000000 )       (  0.2500000 )


      isym = 14     180 deg rotation - cart. axis [0,1,-1]       

 cryst.   s(14) = (     0          0         -1      )    f =(  0.2500000 )
                  (     0         -1          0      )       (  0.2500000 )
                  (    -1          0          0      )       (  0.2500000 )

 cart.    s(14) = ( -1.0000000  0.0000000  0.0000000 )    f =( -0.2500000 )
                  (  0.0000000  0.0000000 -1.0000000 )       (  0.2500000 )
                  (  0.0000000 -1.0000000  0.0000000 )       (  0.2500000 )


      isym = 15      90 deg rotation - cart. axis [-1,0,0]       

 cryst.   s(15) = (     0          0          1      )    f =(  0.2500000 )
                  (    -1          0          1      )       (  0.2500000 )
                  (     0         -1          1      )       (  0.2500000 )

 cart.    s(15) = (  1.0000000  0.0000000  0.0000000 )    f =( -0.2500000 )
                  (  0.0000000  0.0000000  1.0000000 )       (  0.2500000 )
                  (  0.0000000 -1.0000000  0.0000000 )       (  0.2500000 )


      isym = 16      90 deg rotation - cart. axis [1,0,0]        

 cryst.   s(16) = (     1         -1          0      )    f =(  0.2500000 )
                  (     1          0         -1      )       (  0.2500000 )
                  (     1          0          0      )       (  0.2500000 )

 cart.    s(16) = (  1.0000000  0.0000000  0.0000000 )    f =( -0.2500000 )
                  (  0.0000000  0.0000000 -1.0000000 )       (  0.2500000 )
                  (  0.0000000  1.0000000  0.0000000 )       (  0.2500000 )


      isym = 17     120 deg rotation - cart. axis [-1,-1,-1]     

 cryst.   s(17) = (    -1          0          1      )
                  (    -1          1          0      )
                  (    -1          0          0      )

 cart.    s(17) = (  0.0000000  1.0000000  0.0000000 )
                  (  0.0000000  0.0000000  1.0000000 )
                  (  1.0000000  0.0000000  0.0000000 )


      isym = 18     120 deg rotation - cart. axis [-1,1,1]       

 cryst.   s(18) = (     0          1          0      )
                  (     0          0          1      )
                  (     1          0          0      )

 cart.    s(18) = (  0.0000000 -1.0000000  0.0000000 )
                  (  0.0000000  0.0000000  1.0000000 )
                  ( -1.0000000  0.0000000  0.0000000 )


      isym = 19     120 deg rotation - cart. axis [1,1,-1]       

 cryst.   s(19) = (     1          0         -1      )
                  (     0          0         -1      )
                  (     0          1         -1      )

 cart.    s(19) = (  0.0000000  1.0000000  0.0000000 )
                  (  0.0000000  0.0000000 -1.0000000 )
                  ( -1.0000000  0.0000000  0.0000000 )


      isym = 20     120 deg rotation - cart. axis [1,-1,1]       

 cryst.   s(20) = (     0         -1          0      )
                  (     1         -1          0      )
                  (     0         -1          1      )

 cart.    s(20) = (  0.0000000 -1.0000000  0.0000000 )
                  (  0.0000000  0.0000000 -1.0000000 )
                  (  1.0000000  0.0000000  0.0000000 )


      isym = 21     120 deg rotation - cart. axis [1,1,1]        

 cryst.   s(21) = (     0          0         -1      )
                  (     0          1         -1      )
                  (     1          0         -1      )

 cart.    s(21) = (  0.0000000  0.0000000  1.0000000 )
                  (  1.0000000  0.0000000  0.0000000 )
                  (  0.0000000  1.0000000  0.0000000 )


      isym = 22     120 deg rotation - cart. axis [-1,1,-1]      

 cryst.   s(22) = (    -1          1          0      )
                  (    -1          0          0      )
                  (    -1          0          1      )

 cart.    s(22) = (  0.0000000  0.0000000  1.0000000 )
                  ( -1.0000000  0.0000000  0.0000000 )
                  (  0.0000000 -1.0000000  0.0000000 )


      isym = 23     120 deg rotation - cart. axis [1,-1,-1]      

 cryst.   s(23) = (     0          0          1      )
                  (     1          0          0      )
                  (     0          1          0      )

 cart.    s(23) = (  0.0000000  0.0000000 -1.0000000 )
                  ( -1.0000000  0.0000000  0.0000000 )
                  (  0.0000000  1.0000000  0.0000000 )


      isym = 24     120 deg rotation - cart. axis [-1,-1,1]      

 cryst.   s(24) = (     1         -1          0      )
                  (     0         -1          1      )
                  (     0         -1          0      )

 cart.    s(24) = (  0.0000000  0.0000000 -1.0000000 )
                  (  1.0000000  0.0000000  0.0000000 )
                  (  0.0000000 -1.0000000  0.0000000 )


      isym = 25     inversion                                    

 cryst.   s(25) = (    -1          0          0      )    f =(  0.2500000 )
                  (     0         -1          0      )       (  0.2500000 )
                  (     0          0         -1      )       (  0.2500000 )

 cart.    s(25) = ( -1.0000000  0.0000000  0.0000000 )    f =( -0.2500000 )
                  (  0.0000000 -1.0000000  0.0000000 )       (  0.2500000 )
                  (  0.0000000  0.0000000 -1.0000000 )       (  0.2500000 )


      isym = 26     inv. 180 deg rotation - cart. axis [0,0,1]   

 cryst.   s(26) = (     0         -1          1      )    f =(  0.2500000 )
                  (    -1          0          1      )       (  0.2500000 )
                  (     0          0          1      )       (  0.2500000 )

 cart.    s(26) = (  1.0000000  0.0000000  0.0000000 )    f =( -0.2500000 )
                  (  0.0000000  1.0000000  0.0000000 )       (  0.2500000 )
                  (  0.0000000  0.0000000 -1.0000000 )       (  0.2500000 )


      isym = 27     inv. 180 deg rotation - cart. axis [0,1,0]   

 cryst.   s(27) = (     1          0          0      )    f =(  0.2500000 )
                  (     1          0         -1      )       (  0.2500000 )
                  (     1         -1          0      )       (  0.2500000 )

 cart.    s(27) = (  1.0000000  0.0000000  0.0000000 )    f =( -0.2500000 )
                  (  0.0000000 -1.0000000  0.0000000 )       (  0.2500000 )
                  (  0.0000000  0.0000000  1.0000000 )       (  0.2500000 )


      isym = 28     inv. 180 deg rotation - cart. axis [1,0,0]   

 cryst.   s(28) = (     0          1         -1      )    f =(  0.2500000 )
                  (     0          1          0      )       (  0.2500000 )
                  (    -1          1          0      )       (  0.2500000 )

 cart.    s(28) = ( -1.0000000  0.0000000  0.0000000 )    f =( -0.2500000 )
                  (  0.0000000  1.0000000  0.0000000 )       (  0.2500000 )
                  (  0.0000000  0.0000000  1.0000000 )       (  0.2500000 )


      isym = 29     inv. 180 deg rotation - cart. axis [1,1,0]   

 cryst.   s(29) = (     0          1          0      )
                  (     1          0          0      )
                  (     0          0          1      )

 cart.    s(29) = (  0.0000000 -1.0000000  0.0000000 )
                  ( -1.0000000  0.0000000  0.0000000 )
                  (  0.0000000  0.0000000  1.0000000 )


      isym = 30     inv. 180 deg rotation - cart. axis [1,-1,0]  

 cryst.   s(30) = (     1          0         -1      )
                  (     0          1         -1      )
                  (     0          0         -1      )

 cart.    s(30) = (  0.0000000  1.0000000  0.0000000 )
                  (  1.0000000  0.0000000  0.0000000 )
                  (  0.0000000  0.0000000  1.0000000 )


      isym = 31     inv.  90 deg rotation - cart. axis [0,0,-1]  

 cryst.   s(31) = (     0         -1          0      )
                  (     0         -1          1      )
                  (     1         -1          0      )

 cart.    s(31) = (  0.0000000 -1.0000000  0.0000000 )
                  (  1.0000000  0.0000000  0.0000000 )
                  (  0.0000000  0.0000000 -1.0000000 )


      isym = 32     inv.  90 deg rotation - cart. axis [0,0,1]   

 cryst.   s(32) = (    -1          0          1      )
                  (    -1          0          0      )
                  (    -1          1          0      )

 cart.    s(32) = (  0.0000000  1.0000000  0.0000000 )
                  ( -1.0000000  0.0000000  0.0000000 )
                  (  0.0000000  0.0000000 -1.0000000 )


      isym = 33     inv. 180 deg rotation - cart. axis [1,0,1]   

 cryst.   s(33) = (     1          0          0      )
                  (     0          0          1      )
                  (     0          1          0      )

 cart.    s(33) = (  0.0000000  0.0000000 -1.0000000 )
                  (  0.0000000  1.0000000  0.0000000 )
                  ( -1.0000000  0.0000000  0.0000000 )


      isym = 34     inv. 180 deg rotation - cart. axis [-1,0,1]  

 cryst.   s(34) = (    -1          0          0      )
                  (    -1          1          0      )
                  (    -1          0          1      )

 cart.    s(34) = (  0.0000000  0.0000000  1.0000000 )
                  (  0.0000000  1.0000000  0.0000000 )
                  (  1.0000000  0.0000000  0.0000000 )


      isym = 35     inv.  90 deg rotation - cart. axis [0,1,0]   

 cryst.   s(35) = (     0         -1          1      )
                  (     1         -1          0      )
                  (     0         -1          0      )

 cart.    s(35) = (  0.0000000  0.0000000 -1.0000000 )
                  (  0.0000000 -1.0000000  0.0000000 )
                  (  1.0000000  0.0000000  0.0000000 )


      isym = 36     inv.  90 deg rotation - cart. axis [0,-1,0]  

 cryst.   s(36) = (     0          1         -1      )
                  (     0          0         -1      )
                  (     1          0         -1      )

 cart.    s(36) = (  0.0000000  0.0000000  1.0000000 )
                  (  0.0000000 -1.0000000  0.0000000 )
                  ( -1.0000000  0.0000000  0.0000000 )


      isym = 37     inv. 180 deg rotation - cart. axis [0,1,1]   

 cryst.   s(37) = (     1         -1          0      )
                  (     0         -1          0      )
                  (     0         -1          1      )

 cart.    s(37) = (  1.0000000  0.0000000  0.0000000 )
                  (  0.0000000  0.0000000 -1.0000000 )
                  (  0.0000000 -1.0000000  0.0000000 )


      isym = 38     inv. 180 deg rotation - cart. axis [0,1,-1]  

 cryst.   s(38) = (     0          0          1      )
                  (     0          1          0      )
                  (     1          0          0      )

 cart.    s(38) = (  1.0000000  0.0000000  0.0000000 )
                  (  0.0000000  0.0000000  1.0000000 )
                  (  0.0000000  1.0000000  0.0000000 )


      isym = 39     inv.  90 deg rotation - cart. axis [-1,0,0]  

 cryst.   s(39) = (     0          0         -1      )
                  (     1          0         -1      )
                  (     0          1         -1      )

 cart.    s(39) = ( -1.0000000  0.0000000  0.0000000 )
                  (  0.0000000  0.0000000 -1.0000000 )
                  (  0.0000000  1.0000000  0.0000000 )


      isym = 40     inv.  90 deg rotation - cart. axis [1,0,0]   

 cryst.   s(40) = (    -1          1          0      )
                  (    -1          0          1      )
                  (    -1          0          0      )

 cart.    s(40) = ( -1.0000000  0.0000000  0.0000000 )
                  (  0.0000000  0.0000000  1.0000000 )
                  (  0.0000000 -1.0000000  0.0000000 )


      isym = 41     inv. 120 deg rotation - cart. axis [-1,-1,-1]

 cryst.   s(41) = (     1          0         -1      )    f =(  0.2500000 )
                  (     1         -1          0      )       (  0.2500000 )
                  (     1          0          0      )       (  0.2500000 )

 cart.    s(41) = (  0.0000000 -1.0000000  0.0000000 )    f =( -0.2500000 )
                  (  0.0000000  0.0000000 -1.0000000 )       (  0.2500000 )
                  ( -1.0000000  0.0000000  0.0000000 )       (  0.2500000 )


      isym = 42     inv. 120 deg rotation - cart. axis [-1,1,1]  

 cryst.   s(42) = (     0         -1          0      )    f =(  0.2500000 )
                  (     0          0         -1      )       (  0.2500000 )
                  (    -1          0          0      )       (  0.2500000 )

 cart.    s(42) = (  0.0000000  1.0000000  0.0000000 )    f =( -0.2500000 )
                  (  0.0000000  0.0000000 -1.0000000 )       (  0.2500000 )
                  (  1.0000000  0.0000000  0.0000000 )       (  0.2500000 )


      isym = 43     inv. 120 deg rotation - cart. axis [1,1,-1]  

 cryst.   s(43) = (    -1          0          1      )    f =(  0.2500000 )
                  (     0          0          1      )       (  0.2500000 )
                  (     0         -1          1      )       (  0.2500000 )

 cart.    s(43) = (  0.0000000 -1.0000000  0.0000000 )    f =( -0.2500000 )
                  (  0.0000000  0.0000000  1.0000000 )       (  0.2500000 )
                  (  1.0000000  0.0000000  0.0000000 )       (  0.2500000 )


      isym = 44     inv. 120 deg rotation - cart. axis [1,-1,1]  

 cryst.   s(44) = (     0          1          0      )    f =(  0.2500000 )
                  (    -1          1          0      )       (  0.2500000 )
                  (     0          1         -1      )       (  0.2500000 )

 cart.    s(44) = (  0.0000000  1.0000000  0.0000000 )    f =( -0.2500000 )
                  (  0.0000000  0.0000000  1.0000000 )       (  0.2500000 )
                  ( -1.0000000  0.0000000  0.0000000 )       (  0.2500000 )


      isym = 45     inv. 120 deg rotation - cart. axis [1,1,1]   

 cryst.   s(45) = (     0          0          1      )    f =(  0.2500000 )
                  (     0         -1          1      )       (  0.2500000 )
                  (    -1          0          1      )       (  0.2500000 )

 cart.    s(45) = (  0.0000000  0.0000000 -1.0000000 )    f =( -0.2500000 )
                  ( -1.0000000  0.0000000  0.0000000 )       (  0.2500000 )
                  (  0.0000000 -1.0000000  0.0000000 )       (  0.2500000 )


      isym = 46     inv. 120 deg rotation - cart. axis [-1,1,-1] 

 cryst.   s(46) = (     1         -1          0      )    f =(  0.2500000 )
                  (     1          0          0      )       (  0.2500000 )
                  (     1          0         -1      )       (  0.2500000 )

 cart.    s(46) = (  0.0000000  0.0000000 -1.0000000 )    f =( -0.2500000 )
                  (  1.0000000  0.0000000  0.0000000 )       (  0.2500000 )
                  (  0.0000000  1.0000000  0.0000000 )       (  0.2500000 )


      isym = 47     inv. 120 deg rotation - cart. axis [1,-1,-1] 

 cryst.   s(47) = (     0          0         -1      )    f =(  0.2500000 )
                  (    -1          0          0      )       (  0.2500000 )
                  (     0         -1          0      )       (  0.2500000 )

 cart.    s(47) = (  0.0000000  0.0000000  1.0000000 )    f =( -0.2500000 )
                  (  1.0000000  0.0000000  0.0000000 )       (  0.2500000 )
                  (  0.0000000 -1.0000000  0.0000000 )       (  0.2500000 )


      isym = 48     inv. 120 deg rotation - cart. axis [-1,-1,1] 

 cryst.   s(48) = (    -1          1          0      )    f =(  0.2500000 )
                  (     0          1         -1      )       (  0.2500000 )
                  (     0          1          0      )       (  0.2500000 )

 cart.    s(48) = (  0.0000000  0.0000000  1.0000000 )    f =( -0.2500000 )
                  ( -1.0000000  0.0000000  0.0000000 )       (  0.2500000 )
                  (  0.0000000  1.0000000  0.0000000 )       (  0.2500000 )


     point group O_h (m-3m) 
     there are 10 classes
     the character table:

       E     8C3   3C2   6C4   6C2'  i     8S6   3s_h  6S4   6s_d 
A_1g   1.00  1.00  1.00  1.00  1.00  1.00  1.00  1.00  1.00  1.00
A_2g   1.00  1.00  1.00 -1.00 -1.00  1.00  1.00  1.00 -1.00 -1.00
E_g    2.00 -1.00  2.00  0.00  0.00  2.00 -1.00  2.00  0.00  0.00
T_1g   3.00  0.00 -1.00  1.00 -1.00  3.00  0.00 -1.00  1.00 -1.00
T_2g   3.00  0.00 -1.00 -1.00  1.00  3.00  0.00 -1.00 -1.00  1.00
A_1u   1.00  1.00  1.00  1.00  1.00 -1.00 -1.00 -1.00 -1.00 -1.00
A_2u   1.00  1.00  1.00 -1.00 -1.00 -1.00 -1.00 -1.00  1.00  1.00
E_u    2.00 -1.00  2.00  0.00  0.00 -2.00  1.00 -2.00  0.00  0.00
T_1u   3.00  0.00 -1.00  1.00 -1.00 -3.00  0.00  1.00 -1.00  1.00
T_2u   3.00  0.00 -1.00 -1.00  1.00 -3.00  0.00  1.00  1.00 -1.00

     the symmetry operations in each class and the name of the first element:

     E        1
          identity                                               
     8C3     17   19   20   18   24   21   22   23
          120 deg rotation - cart. axis [-1,-1,-1]               
     3C2      2    4    3
          180 deg rotation - cart. axis [0,0,1]                  
     6C4      7    8   15   16   12   11
           90 deg rotation - cart. axis [0,0,-1]                 
     6C2'     5    6   14   13   10    9
          180 deg rotation - cart. axis [1,1,0]                  
     i       25
          inversion                                              
     8S6     41   43   44   42   48   45   46   47
          inv. 120 deg rotation - cart. axis [-1,-1,-1]          
     3s_h    26   28   27
          inv. 180 deg rotation - cart. axis [0,0,1]             
     6S4     31   32   39   40   36   35
          inv.  90 deg rotation - cart. axis [0,0,-1]            
     6s_d    29   30   38   37   34   33
          inv. 180 deg rotation - cart. axis [1,1,0]             

   Cartesian axes

     site n.     atom                  positions (alat units)
         1           Si  tau(   1) = (   0.0000000   0.0000000   0.0000000  )
         2           Si  tau(   2) = (   0.2500000   0.2500000   0.2500000  )

   Crystallographic axes

     site n.     atom                  positions (cryst. coord.)
         1           Si  tau(   1) = (  0.0000000  0.0000000  0.0000000  )
         2           Si  tau(   2) = ( -0.2500000  0.7500000 -0.2500000  )

     number of k points=    91
                       cart. coord. in units 2pi/alat
        k(    1) = (   0.5000000   0.5000000   0.5000000), wk =   0.0219780
        k(    2) = (   0.4750000   0.4750000   0.4750000), wk =   0.0219780
        k(    3) = (   0.4500000   0.4500000   0.4500000), wk =   0.0219780
        k(    4) = (   0.4250000   0.4250000   0.4250000), wk =   0.0219780
        k(    5) = (   0.4000000   0.4000000   0.4000000), wk =   0.0219780
        k(    6) = (   0.3750000   0.3750000   0.3750000), wk =   0.0219780
        k(    7) = (   0.3500000   0.3500000   0.3500000), wk =   0.0219780
        k(    8) = (   0.3250000   0.3250000   0.3250000), wk =   0.0219780
        k(    9) = (   0.3000000   0.3000000   0.3000000), wk =   0.0219780
        k(   10) = (   0.2750000   0.2750000   0.2750000), wk =   0.0219780
        k(   11) = (   0.2500000   0.2500000   0.2500000), wk =   0.0219780
        k(   12) = (   0.2250000   0.2250000   0.2250000), wk =   0.0219780
        k(   13) = (   0.2000000   0.2000000   0.2000000), wk =   0.0219780
        k(   14) = (   0.1750000   0.1750000   0.1750000), wk =   0.0219780
        k(   15) = (   0.1500000   0.1500000   0.1500000), wk =   0.0219780
        k(   16) = (   0.1250000   0.1250000   0.1250000), wk =   0.0219780
        k(   17) = (   0.1000000   0.1000000   0.1000000), wk =   0.0219780
        k(   18) = (   0.0750000   0.0750000   0.0750000), wk =   0.0219780
        k(   19) = (   0.0500000   0.0500000   0.0500000), wk =   0.0219780
        k(   20) = (   0.0250000   0.0250000   0.0250000), wk =   0.0219780
        k(   21) = (   0.0000000   0.0000000   0.0000000), wk =   0.0219780
        k(   22) = (   0.0333333   0.0000000   0.0000000), wk =   0.0219780
        k(   23) = (   0.0666667   0.0000000   0.0000000), wk =   0.0219780
        k(   24) = (   0.1000000   0.0000000   0.0000000), wk =   0.0219780
        k(   25) = (   0.1333333   0.0000000   0.0000000), wk =   0.0219780
        k(   26) = (   0.1666667   0.0000000   0.0000000), wk =   0.0219780
        k(   27) = (   0.2000000   0.0000000   0.0000000), wk =   0.0219780
        k(   28) = (   0.2333333   0.0000000   0.0000000), wk =   0.0219780
        k(   29) = (   0.2666667   0.0000000   0.0000000), wk =   0.0219780
        k(   30) = (   0.3000000   0.0000000   0.0000000), wk =   0.0219780
        k(   31) = (   0.3333333   0.0000000   0.0000000), wk =   0.0219780
        k(   32) = (   0.3666667   0.0000000   0.0000000), wk =   0.0219780
        k(   33) = (   0.4000000   0.0000000   0.0000000), wk =   0.0219780
        k(   34) = (   0.4333333   0.0000000   0.0000000), wk =   0.0219780
        k(   35) = (   0.4666667   0.0000000   0.0000000), wk =   0.0219780
        k(   36) = (   0.5000000   0.0000000   0.0000000), wk =   0.0219780
        k(   37) = (   0.5333333   0.0000000   0.0000000), wk =   0.0219780
        k(   38) = (   0.5666667   0.0000000   0.0000000), wk =   0.0219780
        k(   39) = (   0.6000000   0.0000000   0.0000000), wk =   0.0219780
        k(   40) = (   0.6333333   0.0000000   0.0000000), wk =   0.0219780
        k(   41) = (   0.6666667   0.0000000   0.0000000), wk =   0.0219780
        k(   42) = (   0.7000000   0.0000000   0.0000000), wk =   0.0219780
        k(   43) = (   0.7333333   0.0000000   0.0000000), wk =   0.0219780
        k(   44) = (   0.7666667   0.0000000   0.0000000), wk =   0.0219780
        k(   45) = (   0.8000000   0.0000000   0.0000000), wk =   0.0219780
        k(   46) = (   0.8333333   0.0000000   0.0000000), wk =   0.0219780
        k(   47) = (   0.8666667   0.0000000   0.0000000), wk =   0.0219780
        k(   48) = (   0.9000000   0.0000000   0.0000000), wk =   0.0219780
        k(   49) = (   0.9333333   0.0000000   0.0000000), wk =   0.0219780
        k(   50) = (   0.9666667   0.0000000   0.0000000), wk =   0.0219780
        k(   51) = (   1.0000000   0.0000000   0.0000000), wk =   0.0219780
        k(   52) = (   1.0000000   0.0250000   0.0250000), wk =   0.0219780
        k(   53) = (   1.0000000   0.0500000   0.0500000), wk =   0.0219780
        k(   54) = (   1.0000000   0.0750000   0.0750000), wk =   0.0219780
        k(   55) = (   1.0000000   0.1000000   0.1000000), wk =   0.0219780
        k(   56) = (   1.0000000   0.1250000   0.1250000), wk =   0.0219780
        k(   57) = (   1.0000000   0.1500000   0.1500000), wk =   0.0219780
        k(   58) = (   1.0000000   0.1750000   0.1750000), wk =   0.0219780
        k(   59) = (   1.0000000   0.2000000   0.2000000), wk =   0.0219780
        k(   60) = (   1.0000000   0.2250000   0.2250000), wk =   0.0219780
        k(   61) = (   1.0000000   0.2500000   0.2500000), wk =   0.0219780
        k(   62) = (   0.9666667   0.2416667   0.2416667), wk =   0.0219780
        k(   63) = (   0.9333333   0.2333333   0.2333333), wk =   0.0219780
        k(   64) = (   0.9000000   0.2250000   0.2250000), wk =   0.0219780
        k(   65) = (   0.8666667   0.2166667   0.2166667), wk =   0.0219780
        k(   66) = (   0.8333333   0.2083333   0.2083333), wk =   0.0219780
        k(   67) = (   0.8000000   0.2000000   0.2000000), wk =   0.0219780
        k(   68) = (   0.7666667   0.1916667   0.1916667), wk =   0.0219780
        k(   69) = (   0.7333333   0.1833333   0.1833333), wk =   0.0219780
        k(   70) = (   0.7000000   0.1750000   0.1750000), wk =   0.0219780
        k(   71) = (   0.6666667   0.1666667   0.1666667), wk =   0.0219780
        k(   72) = (   0.6333333   0.1583333   0.1583333), wk =   0.0219780
        k(   73) = (   0.6000000   0.1500000   0.1500000), wk =   0.0219780
        k(   74) = (   0.5666667   0.1416667   0.1416667), wk =   0.0219780
        k(   75) = (   0.5333333   0.1333333   0.1333333), wk =   0.0219780
        k(   76) = (   0.5000000   0.1250000   0.1250000), wk =   0.0219780
        k(   77) = (   0.4666667   0.1166667   0.1166667), wk =   0.0219780
        k(   78) = (   0.4333333   0.1083333   0.1083333), wk =   0.0219780
        k(   79) = (   0.4000000   0.1000000   0.1000000), wk =   0.0219780
        k(   80) = (   0.3666667   0.0916667   0.0916667), wk =   0.0219780
        k(   81) = (   0.3333333   0.0833333   0.0833333), wk =   0.0219780
        k(   82) = (   0.3000000   0.0750000   0.0750000), wk =   0.0219780
        k(   83) = (   0.2666667   0.0666667   0.0666667), wk =   0.0219780
        k(   84) = (   0.2333333   0.0583333   0.0583333), wk =   0.0219780
        k(   85) = (   0.2000000   0.0500000   0.0500000), wk =   0.0219780
        k(   86) = (   0.1666667   0.0416667   0.0416667), wk =   0.0219780
        k(   87) = (   0.1333333   0.0333333   0.0333333), wk =   0.0219780
        k(   88) = (   0.1000000   0.0250000   0.0250000), wk =   0.0219780
        k(   89) = (   0.0666667   0.0166667   0.0166667), wk =   0.0219780
        k(   90) = (   0.0333333   0.0083333   0.0083333), wk =   0.0219780
        k(   91) = (   0.0000000   0.0000000   0.0000000), wk =   0.0219780

                       cryst. coord.
        k(    1) = (   0.0000000   0.5000000   0.0000000), wk =   0.0219780
        k(    2) = (   0.0000000   0.4750000   0.0000000), wk =   0.0219780
        k(    3) = (   0.0000000   0.4500000   0.0000000), wk =   0.0219780
        k(    4) = (   0.0000000   0.4250000   0.0000000), wk =   0.0219780
        k(    5) = (   0.0000000   0.4000000   0.0000000), wk =   0.0219780
        k(    6) = (   0.0000000   0.3750000   0.0000000), wk =   0.0219780
        k(    7) = (   0.0000000   0.3500000   0.0000000), wk =   0.0219780
        k(    8) = (   0.0000000   0.3250000   0.0000000), wk =   0.0219780
        k(    9) = (   0.0000000   0.3000000   0.0000000), wk =   0.0219780
        k(   10) = (   0.0000000   0.2750000   0.0000000), wk =   0.0219780
        k(   11) = (   0.0000000   0.2500000   0.0000000), wk =   0.0219780
        k(   12) = (   0.0000000   0.2250000   0.0000000), wk =   0.0219780
        k(   13) = (   0.0000000   0.2000000   0.0000000), wk =   0.0219780
        k(   14) = (   0.0000000   0.1750000   0.0000000), wk =   0.0219780
        k(   15) = (   0.0000000   0.1500000   0.0000000), wk =   0.0219780
        k(   16) = (   0.0000000   0.1250000   0.0000000), wk =   0.0219780
        k(   17) = (   0.0000000   0.1000000   0.0000000), wk =   0.0219780
        k(   18) = (   0.0000000   0.0750000   0.0000000), wk =   0.0219780
        k(   19) = (   0.0000000   0.0500000   0.0000000), wk =   0.0219780
        k(   20) = (   0.0000000   0.0250000   0.0000000), wk =   0.0219780
        k(   21) = (   0.0000000   0.0000000   0.0000000), wk =   0.0219780
        k(   22) = (  -0.0166667   0.0000000  -0.0166667), wk =   0.0219780
        k(   23) = (  -0.0333333   0.0000000  -0.0333333), wk =   0.0219780
        k(   24) = (  -0.0500000   0.0000000  -0.0500000), wk =   0.0219780
        k(   25) = (  -0.0666667   0.0000000  -0.0666667), wk =   0.0219780
        k(   26) = (  -0.0833333   0.0000000  -0.0833333), wk =   0.0219780
        k(   27) = (  -0.1000000   0.0000000  -0.1000000), wk =   0.0219780
        k(   28) = (  -0.1166667   0.0000000  -0.1166667), wk =   0.0219780
        k(   29) = (  -0.1333333   0.0000000  -0.1333333), wk =   0.0219780
        k(   30) = (  -0.1500000   0.0000000  -0.1500000), wk =   0.0219780
        k(   31) = (  -0.1666667   0.0000000  -0.1666667), wk =   0.0219780
        k(   32) = (  -0.1833333   0.0000000  -0.1833333), wk =   0.0219780
        k(   33) = (  -0.2000000   0.0000000  -0.2000000), wk =   0.0219780
        k(   34) = (  -0.2166667   0.0000000  -0.2166667), wk =   0.0219780
        k(   35) = (  -0.2333333   0.0000000  -0.2333333), wk =   0.0219780
        k(   36) = (  -0.2500000   0.0000000  -0.2500000), wk =   0.0219780
        k(   37) = (  -0.2666667   0.0000000  -0.2666667), wk =   0.0219780
        k(   38) = (  -0.2833333   0.0000000  -0.2833333), wk =   0.0219780
        k(   39) = (  -0.3000000   0.0000000  -0.3000000), wk =   0.0219780
        k(   40) = (  -0.3166667   0.0000000  -0.3166667), wk =   0.0219780
        k(   41) = (  -0.3333333   0.0000000  -0.3333333), wk =   0.0219780
        k(   42) = (  -0.3500000   0.0000000  -0.3500000), wk =   0.0219780
        k(   43) = (  -0.3666667   0.0000000  -0.3666667), wk =   0.0219780
        k(   44) = (  -0.3833333   0.0000000  -0.3833333), wk =   0.0219780
        k(   45) = (  -0.4000000   0.0000000  -0.4000000), wk =   0.0219780
        k(   46) = (  -0.4166667   0.0000000  -0.4166667), wk =   0.0219780
        k(   47) = (  -0.4333333   0.0000000  -0.4333333), wk =   0.0219780
        k(   48) = (  -0.4500000   0.0000000  -0.4500000), wk =   0.0219780
        k(   49) = (  -0.4666667   0.0000000  -0.4666667), wk =   0.0219780
        k(   50) = (  -0.4833333   0.0000000  -0.4833333), wk =   0.0219780
        k(   51) = (  -0.5000000   0.0000000  -0.5000000), wk =   0.0219780
        k(   52) = (  -0.4875000   0.0250000  -0.4875000), wk =   0.0219780
        k(   53) = (  -0.4750000   0.0500000  -0.4750000), wk =   0.0219780
        k(   54) = (  -0.4625000   0.0750000  -0.4625000), wk =   0.0219780
        k(   55) = (  -0.4500000   0.1000000  -0.4500000), wk =   0.0219780
        k(   56) = (  -0.4375000   0.1250000  -0.4375000), wk =   0.0219780
        k(   57) = (  -0.4250000   0.1500000  -0.4250000), wk =   0.0219780
        k(   58) = (  -0.4125000   0.1750000  -0.4125000), wk =   0.0219780
        k(   59) = (  -0.4000000   0.2000000  -0.4000000), wk =   0.0219780
        k(   60) = (  -0.3875000   0.2250000  -0.3875000), wk =   0.0219780
        k(   61) = (  -0.3750000   0.2500000  -0.3750000), wk =   0.0219780
        k(   62) = (  -0.3625000   0.2416667  -0.3625000), wk =   0.0219780
        k(   63) = (  -0.3500000   0.2333333  -0.3500000), wk =   0.0219780
        k(   64) = (  -0.3375000   0.2250000  -0.3375000), wk =   0.0219780
        k(   65) = (  -0.3250000   0.2166667  -0.3250000), wk =   0.0219780
        k(   66) = (  -0.3125000   0.2083333  -0.3125000), wk =   0.0219780
        k(   67) = (  -0.3000000   0.2000000  -0.3000000), wk =   0.0219780
        k(   68) = (  -0.2875000   0.1916667  -0.2875000), wk =   0.0219780
        k(   69) = (  -0.2750000   0.1833333  -0.2750000), wk =   0.0219780
        k(   70) = (  -0.2625000   0.1750000  -0.2625000), wk =   0.0219780
        k(   71) = (  -0.2500000   0.1666667  -0.2500000), wk =   0.0219780
        k(   72) = (  -0.2375000   0.1583333  -0.2375000), wk =   0.0219780
        k(   73) = (  -0.2250000   0.1500000  -0.2250000), wk =   0.0219780
        k(   74) = (  -0.2125000   0.1416667  -0.2125000), wk =   0.0219780
        k(   75) = (  -0.2000000   0.1333333  -0.2000000), wk =   0.0219780
        k(   76) = (  -0.1875000   0.1250000  -0.1875000), wk =   0.0219780
        k(   77) = (  -0.1750000   0.1166667  -0.1750000), wk =   0.0219780
        k(   78) = (  -0.1625000   0.1083333  -0.1625000), wk =   0.0219780
        k(   79) = (  -0.1500000   0.1000000  -0.1500000), wk =   0.0219780
        k(   80) = (  -0.1375000   0.0916667  -0.1375000), wk =   0.0219780
        k(   81) = (  -0.1250000   0.0833333  -0.1250000), wk =   0.0219780
        k(   82) = (  -0.1125000   0.0750000  -0.1125000), wk =   0.0219780
        k(   83) = (  -0.1000000   0.0666667  -0.1000000), wk =   0.0219780
        k(   84) = (  -0.0875000   0.0583333  -0.0875000), wk =   0.0219780
        k(   85) = (  -0.0750000   0.0500000  -0.0750000), wk =   0.0219780
        k(   86) = (  -0.0625000   0.0416667  -0.0625000), wk =   0.0219780
        k(   87) = (  -0.0500000   0.0333333  -0.0500000), wk =   0.0219780
        k(   88) = (  -0.0375000   0.0250000  -0.0375000), wk =   0.0219780
        k(   89) = (  -0.0250000   0.0166667  -0.0250000), wk =   0.0219780
        k(   90) = (  -0.0125000   0.0083333  -0.0125000), wk =   0.0219780
        k(   91) = (   0.0000000   0.0000000   0.0000000), wk =   0.0219780

     Dense  grid:    36325 G-vectors     FFT dimensions: (  48,  48,  48)

     Smooth grid:    12939 G-vectors     FFT dimensions: (  36,  36,  36)

     Dynamical RAM for                 wfc:       0.20 MB

     Dynamical RAM for     wfc (w. buffer):       0.20 MB

     Dynamical RAM for           str. fact:       0.55 MB

     Dynamical RAM for           local pot:       0.00 MB

     Dynamical RAM for          nlocal pot:       0.20 MB

     Dynamical RAM for                qrad:       0.22 MB

     Dynamical RAM for          rho,v,vnew:       4.19 MB

     Dynamical RAM for           G-vectors:       2.18 MB

     Dynamical RAM for          h,s,v(r/c):       0.05 MB

     Dynamical RAM for          <psi|beta>:       0.00 MB

     Dynamical RAM for                 psi:       0.79 MB

     Dynamical RAM for                hpsi:       0.79 MB

     Dynamical RAM for      wfcinit/wfcrot:       0.40 MB

     Estimated static dynamical RAM per process >      12.87 MB

     Estimated max dynamical RAM per process >      14.49 MB

     The potential is recalculated from file :
     ./tmp/silicon.save/charge-density

     Starting wfcs are    8 randomized atomic wfcs

     Band Structure Calculation
     Davidson diagonalization with overlap

     Computing kpt #:     1
     total cpu time spent up to now is        0.3 secs

     Computing kpt #:     2
     total cpu time spent up to now is        0.5 secs

     Computing kpt #:     3
     total cpu time spent up to now is        0.6 secs

     Computing kpt #:     4
     total cpu time spent up to now is        0.7 secs

     Computing kpt #:     5
     total cpu time spent up to now is        0.9 secs

     Computing kpt #:     6
     total cpu time spent up to now is        1.0 secs

     Computing kpt #:     7
     total cpu time spent up to now is        1.1 secs

     Computing kpt #:     8
     total cpu time spent up to now is        1.3 secs

     Computing kpt #:     9
     total cpu time spent up to now is        1.4 secs

     Computing kpt #:    10
     total cpu time spent up to now is        1.5 secs

     Computing kpt #:    11
     total cpu time spent up to now is        1.7 secs

     Computing kpt #:    12
     total cpu time spent up to now is        1.8 secs

     Computing kpt #:    13
     total cpu time spent up to now is        1.9 secs

     Computing kpt #:    14
     total cpu time spent up to now is        2.0 secs

     Computing kpt #:    15
     total cpu time spent up to now is        2.2 secs

     Computing kpt #:    16
     total cpu time spent up to now is        2.3 secs

     Computing kpt #:    17
     total cpu time spent up to now is        2.4 secs

     Computing kpt #:    18
     total cpu time spent up to now is        2.6 secs

     Computing kpt #:    19
     total cpu time spent up to now is        2.7 secs

     Computing kpt #:    20
     total cpu time spent up to now is        2.8 secs

     Computing kpt #:    21
     total cpu time spent up to now is        3.0 secs

     Computing kpt #:    22
     total cpu time spent up to now is        3.1 secs

     Computing kpt #:    23
     total cpu time spent up to now is        3.2 secs

     Computing kpt #:    24
     total cpu time spent up to now is        3.3 secs

     Computing kpt #:    25
     total cpu time spent up to now is        3.4 secs

     Computing kpt #:    26
     total cpu time spent up to now is        3.6 secs

     Computing kpt #:    27
     total cpu time spent up to now is        3.7 secs

     Computing kpt #:    28
     total cpu time spent up to now is        3.9 secs

     Computing kpt #:    29
     total cpu time spent up to now is        4.0 secs

     Computing kpt #:    30
     total cpu time spent up to now is        4.2 secs

     Computing kpt #:    31
     total cpu time spent up to now is        4.3 secs

     Computing kpt #:    32
     total cpu time spent up to now is        4.4 secs

     Computing kpt #:    33
     total cpu time spent up to now is        4.6 secs

     Computing kpt #:    34
     total cpu time spent up to now is        4.7 secs

     Computing kpt #:    35
     total cpu time spent up to now is        4.8 secs

     Computing kpt #:    36
     total cpu time spent up to now is        4.9 secs

     Computing kpt #:    37
     total cpu time spent up to now is        5.1 secs

     Computing kpt #:    38
     total cpu time spent up to now is        5.2 secs

     Computing kpt #:    39
     total cpu time spent up to now is        5.3 secs

     Computing kpt #:    40
     total cpu time spent up to now is        5.4 secs

     Computing kpt #:    41
     total cpu time spent up to now is        5.5 secs

     Computing kpt #:    42
     total cpu time spent up to now is        5.7 secs

     Computing kpt #:    43
     total cpu time spent up to now is        5.8 secs

     Computing kpt #:    44
     total cpu time spent up to now is        5.9 secs

     Computing kpt #:    45
     total cpu time spent up to now is        6.1 secs

     Computing kpt #:    46
     total cpu time spent up to now is        6.2 secs

     Computing kpt #:    47
     total cpu time spent up to now is        6.3 secs

     Computing kpt #:    48
     total cpu time spent up to now is        6.4 secs

     Computing kpt #:    49
     total cpu time spent up to now is        6.6 secs

     Computing kpt #:    50
     total cpu time spent up to now is        6.7 secs

     Computing kpt #:    51
     total cpu time spent up to now is        6.9 secs

     Computing kpt #:    52
     total cpu time spent up to now is        7.1 secs

     Computing kpt #:    53
     total cpu time spent up to now is        7.3 secs

     Computing kpt #:    54
     total cpu time spent up to now is        7.4 secs

     Computing kpt #:    55
     total cpu time spent up to now is        7.5 secs

     Computing kpt #:    56
     total cpu time spent up to now is        7.7 secs

     Computing kpt #:    57
     total cpu time spent up to now is        7.8 secs

     Computing kpt #:    58
     total cpu time spent up to now is        8.0 secs

     Computing kpt #:    59
     total cpu time spent up to now is        8.2 secs

     Computing kpt #:    60
     total cpu time spent up to now is        8.4 secs

     Computing kpt #:    61
     total cpu time spent up to now is        8.6 secs

     Computing kpt #:    62
     total cpu time spent up to now is        8.7 secs

     Computing kpt #:    63
     total cpu time spent up to now is        8.8 secs

     Computing kpt #:    64
     total cpu time spent up to now is        9.0 secs

     Computing kpt #:    65
     total cpu time spent up to now is        9.1 secs

     Computing kpt #:    66
     total cpu time spent up to now is        9.2 secs

     Computing kpt #:    67
     total cpu time spent up to now is        9.4 secs

     Computing kpt #:    68
     total cpu time spent up to now is        9.5 secs

     Computing kpt #:    69
     total cpu time spent up to now is        9.6 secs

     Computing kpt #:    70
     total cpu time spent up to now is        9.8 secs

     Computing kpt #:    71
     total cpu time spent up to now is        9.9 secs

     Computing kpt #:    72
     total cpu time spent up to now is       10.0 secs

     Computing kpt #:    73
     total cpu time spent up to now is       10.1 secs

     Computing kpt #:    74
     total cpu time spent up to now is       10.3 secs

     Computing kpt #:    75
     total cpu time spent up to now is       10.4 secs

     Computing kpt #:    76
     total cpu time spent up to now is       10.5 secs

     Computing kpt #:    77
     total cpu time spent up to now is       10.6 secs

     Computing kpt #:    78
     total cpu time spent up to now is       10.8 secs

     Computing kpt #:    79
     total cpu time spent up to now is       10.9 secs

     Computing kpt #:    80
     total cpu time spent up to now is       11.0 secs

     Computing kpt #:    81
     total cpu time spent up to now is       11.2 secs

     Computing kpt #:    82
     total cpu time spent up to now is       11.3 secs

     Computing kpt #:    83
     total cpu time spent up to now is       11.4 secs

     Computing kpt #:    84
     total cpu time spent up to now is       11.5 secs

     Computing kpt #:    85
     total cpu time spent up to now is       11.7 secs

     Computing kpt #:    86
     total cpu time spent up to now is       11.8 secs

     Computing kpt #:    87
     total cpu time spent up to now is       11.9 secs

     Computing kpt #:    88
     total cpu time spent up to now is       12.0 secs

     Computing kpt #:    89
     total cpu time spent up to now is       12.1 secs

     Computing kpt #:    90
     total cpu time spent up to now is       12.2 secs

     Computing kpt #:    91
     total cpu time spent up to now is       12.3 secs

     ethr =  1.25E-10,  avg # of iterations = 16.1

     total cpu time spent up to now is       12.3 secs

     End of band structure calculation

          k = 0.5000 0.5000 0.5000 (  1622 PWs)   bands (ev):

    -3.5329  -0.9256   4.8547   4.8547   7.5435   9.3855   9.3855  13.6117

          k = 0.4750 0.4750 0.4750 (  1610 PWs)   bands (ev):

    -3.5690  -0.8739   4.8592   4.8592   7.5486   9.3907   9.3907  13.6200

          k = 0.4500 0.4500 0.4500 (  1610 PWs)   bands (ev):

    -3.6697  -0.7269   4.8727   4.8727   7.5640   9.4060   9.4060  13.6440

          k = 0.4250 0.4250 0.4250 (  1616 PWs)   bands (ev):

    -3.8167  -0.5028   4.8951   4.8951   7.5895   9.4301   9.4301  13.6818

          k = 0.4000 0.4000 0.4000 (  1616 PWs)   bands (ev):

    -3.9915  -0.2203   4.9265   4.9265   7.6252   9.4613   9.4613  13.7282

          k = 0.3750 0.3750 0.3750 (  1610 PWs)   bands (ev):

    -4.1798   0.1060   4.9667   4.9667   7.6708   9.4964   9.4964  13.7728

          k = 0.3500 0.3500 0.3500 (  1610 PWs)   bands (ev):

    -4.3719   0.4659   5.0156   5.0156   7.7261   9.5313   9.5313  13.7911

          k = 0.3250 0.3250 0.3250 (  1615 PWs)   bands (ev):

    -4.5613   0.8527   5.0732   5.0732   7.7907   9.5608   9.5608  13.7312

          k = 0.3000 0.3000 0.3000 (  1615 PWs)   bands (ev):

    -4.7439   1.2613   5.1390   5.1390   7.8642   9.5784   9.5784  13.5337

          k = 0.2750 0.2750 0.2750 (  1615 PWs)   bands (ev):

    -4.9169   1.6882   5.2128   5.2128   7.9460   9.5771   9.5771  13.2126

          k = 0.2500 0.2500 0.2500 (  1618 PWs)   bands (ev):

    -5.0783   2.1302   5.2938   5.2938   8.0349   9.5503   9.5503  12.8255

          k = 0.2250 0.2250 0.2250 (  1612 PWs)   bands (ev):

    -5.2268   2.5847   5.3814   5.3814   8.1298   9.4940   9.4940  12.4082

          k = 0.2000 0.2000 0.2000 (  1606 PWs)   bands (ev):

    -5.3613   3.0486   5.4742   5.4742   8.2288   9.4082   9.4082  11.9761

          k = 0.1750 0.1750 0.1750 (  1600 PWs)   bands (ev):

    -5.4812   3.5185   5.5706   5.5706   8.3294   9.2972   9.2972  11.5371

          k = 0.1500 0.1500 0.1500 (  1594 PWs)   bands (ev):

    -5.5859   3.9900   5.6685   5.6685   8.4280   9.1690   9.1690  11.0967

          k = 0.1250 0.1250 0.1250 (  1606 PWs)   bands (ev):

    -5.6751   4.4569   5.7646   5.7646   8.5198   9.0338   9.0338  10.6620

          k = 0.1000 0.1000 0.1000 (  1606 PWs)   bands (ev):

    -5.7484   4.9094   5.8551   5.8551   8.5975   8.9021   8.9021  10.2448

          k = 0.0750 0.0750 0.0750 (  1618 PWs)   bands (ev):

    -5.8056   5.3316   5.9349   5.9349   8.6500   8.7848   8.7848   9.8663

          k = 0.0500 0.0500 0.0500 (  1630 PWs)   bands (ev):

    -5.8466   5.6959   5.9982   5.9982   8.6629   8.6918   8.6918   9.5632

          k = 0.0250 0.0250 0.0250 (  1639 PWs)   bands (ev):

    -5.8712   5.9563   6.0392   6.0392   8.6318   8.6318   8.6345   9.3780

          k = 0.0000 0.0000 0.0000 (  1639 PWs)   bands (ev):

    -5.8794   6.0535   6.0535   6.0535   8.6110   8.6110   8.6110   9.3203

          k = 0.0333 0.0000 0.0000 (  1639 PWs)   bands (ev):

    -5.8746   6.0200   6.0323   6.0323   8.5983   8.6381   8.6381   9.3530

          k = 0.0667 0.0000 0.0000 (  1635 PWs)   bands (ev):

    -5.8600   5.9236   5.9715   5.9715   8.5609   8.7165   8.7165   9.4464

          k = 0.1000 0.0000 0.0000 (  1627 PWs)   bands (ev):

    -5.8356   5.7741   5.8776   5.8776   8.5008   8.8396   8.8396   9.5888

          k = 0.1333 0.0000 0.0000 (  1607 PWs)   bands (ev):

    -5.8016   5.5835   5.7590   5.7590   8.4211   8.9991   8.9991   9.7643

          k = 0.1667 0.0000 0.0000 (  1595 PWs)   bands (ev):

    -5.7578   5.3625   5.6231   5.6231   8.3254   9.1873   9.1873   9.9556

          k = 0.2000 0.0000 0.0000 (  1599 PWs)   bands (ev):

    -5.7044   5.1195   5.4764   5.4764   8.2172   9.3978   9.3978  10.1421

          k = 0.2333 0.0000 0.0000 (  1603 PWs)   bands (ev):

    -5.6414   4.8607   5.3235   5.3235   8.1000   9.6257   9.6257  10.2977

          k = 0.2667 0.0000 0.0000 (  1607 PWs)   bands (ev):

    -5.5688   4.5906   5.1681   5.1681   7.9771   9.8674   9.8674  10.3891

          k = 0.3000 0.0000 0.0000 (  1607 PWs)   bands (ev):

    -5.4866   4.3123   5.0126   5.0126   7.8511  10.1200  10.1200  10.3866

          k = 0.3333 0.0000 0.0000 (  1607 PWs)   bands (ev):

    -5.3949   4.0280   4.8591   4.8591   7.7244  10.2854  10.3817  10.3817

          k = 0.3667 0.0000 0.0000 (  1607 PWs)   bands (ev):

    -5.2938   3.7392   4.7089   4.7089   7.5990  10.1090  10.6506  10.6506

          k = 0.4000 0.0000 0.0000 (  1607 PWs)   bands (ev):

    -5.1833   3.4471   4.5632   4.5632   7.4765   9.8873  10.9257  10.9257

          k = 0.4333 0.0000 0.0000 (  1615 PWs)   bands (ev):

    -5.0635   3.1527   4.4227   4.4227   7.3583   9.6426  11.2060  11.2060

          k = 0.4667 0.0000 0.0000 (  1612 PWs)   bands (ev):

    -4.9345   2.8566   4.2883   4.2883   7.2456   9.3890  11.4908  11.4908

          k = 0.5000 0.0000 0.0000 (  1612 PWs)   bands (ev):

    -4.7964   2.5593   4.1604   4.1604   7.1393   9.1351  11.7793  11.7793

          k = 0.5333 0.0000 0.0000 (  1612 PWs)   bands (ev):

    -4.6493   2.2614   4.0394   4.0394   7.0404   8.8861  12.0713  12.0713

          k = 0.5667 0.0000 0.0000 (  1612 PWs)   bands (ev):

    -4.4933   1.9633   3.9257   3.9257   6.9494   8.6453  12.3663  12.3663

          k = 0.6000 0.0000 0.0000 (  1620 PWs)   bands (ev):

    -4.3285   1.6654   3.8196   3.8196   6.8671   8.4151  12.6640  12.6640

          k = 0.6333 0.0000 0.0000 (  1624 PWs)   bands (ev):

    -4.1551   1.3682   3.7213   3.7213   6.7939   8.1967  12.9643  12.9643

          k = 0.6667 0.0000 0.0000 (  1624 PWs)   bands (ev):

    -3.9732   1.0721   3.6310   3.6310   6.7304   7.9914  13.2669  13.2669

          k = 0.7000 0.0000 0.0000 (  1632 PWs)   bands (ev):

    -3.7829   0.7776   3.5488   3.5488   6.6770   7.7996  13.5716  13.5716

          k = 0.7333 0.0000 0.0000 (  1624 PWs)   bands (ev):

    -3.5845   0.4850   3.4750   3.4750   6.6340   7.6217  13.8784  13.8784

          k = 0.7667 0.0000 0.0000 (  1624 PWs)   bands (ev):

    -3.3782   0.1949   3.4097   3.4097   6.6020   7.4581  14.1867  14.1867

          k = 0.8000 0.0000 0.0000 (  1624 PWs)   bands (ev):

    -3.1641  -0.0923   3.3528   3.3528   6.5811   7.3087  14.4962  14.4962

          k = 0.8333 0.0000 0.0000 (  1608 PWs)   bands (ev):

    -2.9425  -0.3762   3.3046   3.3046   6.5717   7.1737  14.8059  14.8059

          k = 0.8667 0.0000 0.0000 (  1608 PWs)   bands (ev):

    -2.7136  -0.6563   3.2651   3.2651   6.5742   7.0528  15.1140  15.1140

          k = 0.9000 0.0000 0.0000 (  1608 PWs)   bands (ev):

    -2.4777  -0.9323   3.2343   3.2343   6.5887   6.9460  15.4165  15.4165

          k = 0.9333 0.0000 0.0000 (  1608 PWs)   bands (ev):

    -2.2351  -1.2036   3.2122   3.2122   6.6157   6.8530  15.7034  15.7034

          k = 0.9667 0.0000 0.0000 (  1596 PWs)   bands (ev):

    -1.9860  -1.4699   3.1990   3.1990   6.6554   6.7738  15.9453  15.9453

          k = 1.0000 0.0000 0.0000 (  1604 PWs)   bands (ev):

    -1.7308  -1.7308   3.1946   3.1946   6.7080   6.7080  16.0549  16.0549

          k = 1.0000 0.0250 0.0250 (  1610 PWs)   bands (ev):

    -1.7329  -1.7250   3.1563   3.1990   6.7131   6.7640  15.9970  16.0212

          k = 1.0000 0.0500 0.0500 (  1618 PWs)   bands (ev):

    -1.7395  -1.7073   3.0491   3.2122   6.7283   6.9249  15.8379  15.9249

          k = 1.0000 0.0750 0.0750 (  1618 PWs)   bands (ev):

    -1.7514  -1.6778   2.8914   3.2342   6.7538   7.1728  15.6087  15.7775

          k = 1.0000 0.1000 0.1000 (  1614 PWs)   bands (ev):

    -1.7698  -1.6366   2.7039   3.2649   6.7893   7.4882  15.3368  15.5923

          k = 1.0000 0.1250 0.1250 (  1616 PWs)   bands (ev):

    -1.7966  -1.5837   2.5047   3.3042   6.8348   7.8548  15.0410  15.3808

          k = 1.0000 0.1500 0.1500 (  1614 PWs)   bands (ev):

    -1.8341  -1.5190   2.3078   3.3520   6.8901   8.2603  14.7328  15.1522

          k = 1.0000 0.1750 0.1750 (  1614 PWs)   bands (ev):

    -1.8845  -1.4426   2.1239   3.4081   6.9551   8.6961  14.4192  14.9128

          k = 1.0000 0.2000 0.2000 (  1622 PWs)   bands (ev):

    -1.9504  -1.3546   1.9611   3.4722   7.0295   9.1559  14.1048  14.6212

          k = 1.0000 0.2250 0.2250 (  1620 PWs)   bands (ev):

    -2.0337  -1.2549   1.8252   3.5442   7.1132   9.6350  13.7925  14.2903

          k = 1.0000 0.2500 0.2500 (  1624 PWs)   bands (ev):

    -2.1356  -1.1436   1.7203   3.6237   7.2056  10.1290  13.4844  13.9696

          k = 0.9667 0.2417 0.2417 (  1620 PWs)   bands (ev):

    -2.1399  -1.1450   1.7659   3.6004   7.1797   9.9686  13.5098  13.8363

          k = 0.9333 0.2333 0.2333 (  1616 PWs)   bands (ev):

    -2.2267  -1.0682   1.8403   3.5860   7.1664   9.8215  13.4268  13.6219

          k = 0.9000 0.2250 0.2250 (  1620 PWs)   bands (ev):

    -2.3737  -0.9315   1.9392   3.5808   7.1654   9.6885  13.2967  13.4032

          k = 0.8667 0.2167 0.2167 (  1621 PWs)   bands (ev):

    -2.5549  -0.7573   2.0586   3.5848   7.1764   9.5705  13.1492  13.1844

          k = 0.8333 0.2083 0.2083 (  1619 PWs)   bands (ev):

    -2.7534  -0.5595   2.1952   3.5981   7.1988   9.4686  12.9667  12.9957

          k = 0.8000 0.2000 0.2000 (  1619 PWs)   bands (ev):

    -2.9600  -0.3452   2.3464   3.6208   7.2316   9.3842  12.7504  12.8409

          k = 0.7667 0.1917 0.1917 (  1617 PWs)   bands (ev):

    -3.1691  -0.1183   2.5096   3.6529   7.2736   9.3187  12.5358  12.6863

          k = 0.7333 0.1833 0.1833 (  1620 PWs)   bands (ev):

    -3.3772   0.1193   2.6829   3.6945   7.3234   9.2739  12.3230  12.5323

          k = 0.7000 0.1750 0.1750 (  1619 PWs)   bands (ev):

    -3.5819   0.3661   2.8644   3.7454   7.3791   9.2518  12.1122  12.3783

          k = 0.6667 0.1667 0.1667 (  1620 PWs)   bands (ev):

    -3.7817   0.6215   3.0523   3.8057   7.4385   9.2542  11.9036  12.2233

          k = 0.6333 0.1583 0.1583 (  1620 PWs)   bands (ev):

    -3.9753   0.8849   3.2452   3.8753   7.4998   9.2829  11.6977  12.0658

          k = 0.6000 0.1500 0.1500 (  1619 PWs)   bands (ev):

    -4.1619   1.1558   3.4416   3.9540   7.5610   9.3388  11.4950  11.9042

          k = 0.5667 0.1417 0.1417 (  1616 PWs)   bands (ev):

    -4.3406   1.4339   3.6401   4.0417   7.6211   9.4216  11.2966  11.7368

          k = 0.5333 0.1333 0.1333 (  1614 PWs)   bands (ev):

    -4.5109   1.7189   3.8395   4.1382   7.6796   9.5291  11.1044  11.5616

          k = 0.5000 0.1250 0.1250 (  1616 PWs)   bands (ev):

    -4.6724   2.0104   4.0384   4.2433   7.7369   9.6557  10.9219  11.3773

          k = 0.4667 0.1167 0.1167 (  1615 PWs)   bands (ev):

    -4.8247   2.3081   4.2358   4.3567   7.7940   9.7899  10.7574  11.1830

          k = 0.4333 0.1083 0.1083 (  1613 PWs)   bands (ev):

    -4.9675   2.6114   4.4304   4.4779   7.8520   9.9060  10.6313  10.9783

          k = 0.4000 0.1000 0.1000 (  1609 PWs)   bands (ev):

    -5.1004   2.9198   4.6064   4.6212   7.9121   9.9527  10.5865  10.7638

          k = 0.3667 0.0917 0.0917 (  1605 PWs)   bands (ev):

    -5.2234   3.2326   4.7417   4.8070   7.9753   9.8966  10.5410  10.6432

          k = 0.3333 0.0833 0.0833 (  1603 PWs)   bands (ev):

    -5.3362   3.5489   4.8829   4.9865   8.0421   9.7761  10.3121  10.7393

          k = 0.3000 0.0750 0.0750 (  1603 PWs)   bands (ev):

    -5.4387   3.8674   5.0288   5.1584   8.1123   9.6322  10.0798  10.7964

          k = 0.2667 0.0667 0.0667 (  1598 PWs)   bands (ev):

    -5.5307   4.1864   5.1781   5.3213   8.1856   9.4825   9.8475  10.7559

          k = 0.2333 0.0583 0.0583 (  1600 PWs)   bands (ev):

    -5.6121   4.5036   5.3288   5.4735   8.2606   9.3345   9.6190  10.6053

          k = 0.2000 0.0500 0.0500 (  1603 PWs)   bands (ev):

    -5.6828   4.8155   5.4783   5.6132   8.3355   9.1919   9.3987  10.3797

          k = 0.1667 0.0417 0.0417 (  1606 PWs)   bands (ev):

    -5.7427   5.1171   5.6229   5.7381   8.4076   9.0566   9.1917  10.1231

          k = 0.1333 0.0333 0.0333 (  1606 PWs)   bands (ev):

    -5.7919   5.4009   5.7578   5.8459   8.4738   8.9298   9.0041   9.8689

          k = 0.1000 0.0250 0.0250 (  1627 PWs)   bands (ev):

    -5.8302   5.6553   5.8764   5.9339   8.5305   8.8134   8.8435   9.6431

          k = 0.0667 0.0167 0.0167 (  1634 PWs)   bands (ev):

    -5.8575   5.8636   5.9707   5.9994   8.5742   8.7121   8.7186   9.4674

          k = 0.0333 0.0083 0.0083 (  1639 PWs)   bands (ev):

    -5.8740   6.0036   6.0321   6.0398   8.6017   8.6386   8.6387   9.3574

          k = 0.0000 0.0000 0.0000 (  1639 PWs)   bands (ev):

    -5.8794   6.0535   6.0535   6.0535   8.6110   8.6110   8.6110   9.3203

     Writing output data file silicon.save/

     init_run     :      0.07s CPU      0.09s WALL (       1 calls)
     electrons    :     11.88s CPU     12.10s WALL (       1 calls)

     Called by init_run:
     wfcinit      :      0.00s CPU      0.00s WALL (       1 calls)
     wfcinit:atom :      0.02s CPU      0.02s WALL (      91 calls)
     wfcinit:wfcr :      0.76s CPU      0.77s WALL (      91 calls)
     potinit      :      0.01s CPU      0.02s WALL (       1 calls)
     hinit0       :      0.04s CPU      0.04s WALL (       1 calls)

     Called by electrons:
     c_bands      :     11.88s CPU     12.10s WALL (       1 calls)
     v_of_rho     :      0.00s CPU      0.01s WALL (       1 calls)
     v_h          :      0.00s CPU      0.00s WALL (       1 calls)
     v_xc         :      0.00s CPU      0.01s WALL (       1 calls)

     Called by c_bands:
     init_us_2    :      0.02s CPU      0.02s WALL (      91 calls)
     cegterg      :     10.96s CPU     11.02s WALL (      96 calls)

     Called by sum_band:

     Called by *egterg:
     h_psi        :      9.25s CPU      9.31s WALL (    1655 calls)
     g_psi        :      0.09s CPU      0.09s WALL (    1468 calls)
     cdiaghg      :      0.24s CPU      0.24s WALL (    1559 calls)
     cegterg:over :      0.90s CPU      0.90s WALL (    1468 calls)
     cegterg:upda :      0.66s CPU      0.66s WALL (    1468 calls)
     cegterg:last :      0.42s CPU      0.43s WALL (     379 calls)

     Called by h_psi:
     h_psi:pot    :      9.22s CPU      9.28s WALL (    1655 calls)
     h_psi:calbec :      0.21s CPU      0.21s WALL (    1655 calls)
     vloc_psi     :      8.82s CPU      8.88s WALL (    1655 calls)
     add_vuspsi   :      0.18s CPU      0.19s WALL (    1655 calls)

     General routines
     calbec       :      0.20s CPU      0.21s WALL (    1655 calls)
     fft          :      0.01s CPU      0.01s WALL (       4 calls)
     ffts         :      0.00s CPU      0.00s WALL (       1 calls)
     fftw         :      7.70s CPU      7.76s WALL (   18956 calls)
     interpolate  :      0.01s CPU      0.01s WALL (       1 calls)
     davcio       :      0.05s CPU      0.20s WALL (     182 calls)

     Parallel routines

     PWSCF        :     12.06s CPU     12.40s WALL


   This run was terminated on:   1:31:15  31Aug2023            

=------------------------------------------------------------------------------=
   JOB DONE.
=------------------------------------------------------------------------------=
