
     Program BANDS v.6.4.1 starts on 31Aug2023 at  1:33:34 

     This program is part of the open-source Quantum ESPRESSO suite
     for quantum simulation of materials; please cite
         "P. Giannozzi et al., J. Phys.:Condens. Matter 21 395502 (2009);
         "P. Giannozzi et al., J. Phys.:Condens. Matter 29 465901 (2017);
          URL http://www.quantum-espresso.org", 
     in publications or presentations arising from this work. More details at
     http://www.quantum-espresso.org/quote

     Parallel version (MPI), running on     1 processors

     MPI processes distributed on     1 nodes

     Reading data from directory:
     ./tmp/silicon.save/

     IMPORTANT: XC functional enforced from input :
     Exchange-correlation      = PZ ( 1  1  0  0 0 0)
     Any further DFT definition will be discarded
     Please, verify this is what you really want


     G-vector sticks info
     --------------------
     sticks:   dense  smooth     PW     G-vecs:    dense   smooth      PW
     Sum        1453     733    211                36325    12939    2085

     high-symmetry point:  0.5000 0.5000 0.5000   x coordinate   0.0000
     high-symmetry point:  0.0000 0.0000 0.0000   x coordinate   0.8660
     high-symmetry point:  1.0000 0.0000 0.0000   x coordinate   1.8660
     high-symmetry point:  1.0000 0.2500 0.2500   x coordinate   2.2196
     high-symmetry point:  0.0000 0.0000 0.0000   x coordinate   3.2802

     Plottable bands (eV) written to file si_bands.dat.gnu
     Bands written to file si_bands.dat

 **************************************************************************

                    xk=(   0.50000,   0.50000,   0.50000  )

     zone border point and non-symmorphic group 
     symmetry decomposition not available

 **************************************************************************

 **************************************************************************

                    xk=(   0.47500,   0.47500,   0.47500  )

     point group C_3v (3m)  
     there are  3 classes
     the character table:

       E     2C3   3s_v 
A_1    1.00  1.00  1.00
A_2    1.00  1.00 -1.00
E      2.00 -1.00  0.00

     the symmetry operations in each class and the name of the first element:

     E        1
                                                                 
     2C3      2    3
                                                                 
     3s_v     4    5    6
                                                                 

     Band symmetry, C_3v (3m)   point group:

     e(  1 -  1) =     -3.56904  eV     1   --> A_1  L_1       
     e(  2 -  2) =     -0.87388  eV     1   --> A_1  L_1       
     e(  3 -  4) =      4.85924  eV     2   --> E    L_3       
     e(  5 -  5) =      7.54860  eV     1   --> A_1  L_1       
     e(  6 -  7) =      9.39070  eV     2   --> E    L_3       
     e(  8 -  8) =     13.61996  eV     1   --> A_1  L_1       

 **************************************************************************

 **************************************************************************

                    xk=(   0.45000,   0.45000,   0.45000  )

     Band symmetry, C_3v (3m)   point group:

     e(  1 -  1) =     -3.66970  eV     1   --> A_1  L_1       
     e(  2 -  2) =     -0.72687  eV     1   --> A_1  L_1       
     e(  3 -  4) =      4.87270  eV     2   --> E    L_3       
     e(  5 -  5) =      7.56398  eV     1   --> A_1  L_1       
     e(  6 -  7) =      9.40597  eV     2   --> E    L_3       
     e(  8 -  8) =     13.64403  eV     1   --> A_1  L_1       

 **************************************************************************

 **************************************************************************

                    xk=(   0.42500,   0.42500,   0.42500  )

     Band symmetry, C_3v (3m)   point group:

     e(  1 -  1) =     -3.81671  eV     1   --> A_1  L_1       
     e(  2 -  2) =     -0.50275  eV     1   --> A_1  L_1       
     e(  3 -  4) =      4.89512  eV     2   --> E    L_3       
     e(  5 -  5) =      7.58952  eV     1   --> A_1  L_1       
     e(  6 -  7) =      9.43015  eV     2   --> E    L_3       
     e(  8 -  8) =     13.68175  eV     1   --> A_1  L_1       

 **************************************************************************

 **************************************************************************

                    xk=(   0.40000,   0.40000,   0.40000  )

     Band symmetry, C_3v (3m)   point group:

     e(  1 -  1) =     -3.99150  eV     1   --> A_1  L_1       
     e(  2 -  2) =     -0.22028  eV     1   --> A_1  L_1       
     e(  3 -  4) =      4.92647  eV     2   --> E    L_3       
     e(  5 -  5) =      7.62519  eV     1   --> A_1  L_1       
     e(  6 -  7) =      9.46126  eV     2   --> E    L_3       
     e(  8 -  8) =     13.72823  eV     1   --> A_1  L_1       

 **************************************************************************

 **************************************************************************

                    xk=(   0.37500,   0.37500,   0.37500  )

     Band symmetry, C_3v (3m)   point group:

     e(  1 -  1) =     -4.17979  eV     1   --> A_1  L_1       
     e(  2 -  2) =      0.10600  eV     1   --> A_1  L_1       
     e(  3 -  4) =      4.96668  eV     2   --> E    L_3       
     e(  5 -  5) =      7.67079  eV     1   --> A_1  L_1       
     e(  6 -  7) =      9.49635  eV     2   --> E    L_3       
     e(  8 -  8) =     13.77283  eV     1   --> A_1  L_1       

 **************************************************************************

 **************************************************************************

                    xk=(   0.35000,   0.35000,   0.35000  )

     Band symmetry, C_3v (3m)   point group:

     e(  1 -  1) =     -4.37186  eV     1   --> A_1  L_1       
     e(  2 -  2) =      0.46595  eV     1   --> A_1  L_1       
     e(  3 -  4) =      5.01564  eV     2   --> E    L_3       
     e(  5 -  5) =      7.72609  eV     1   --> A_1  L_1       
     e(  6 -  7) =      9.53132  eV     2   --> E    L_3       
     e(  8 -  8) =     13.79112  eV     1   --> A_1  L_1       

 **************************************************************************

 **************************************************************************

                    xk=(   0.32500,   0.32500,   0.32500  )

     Band symmetry, C_3v (3m)   point group:

     e(  1 -  1) =     -4.56132  eV     1   --> A_1  L_1       
     e(  2 -  2) =      0.85267  eV     1   --> A_1  L_1       
     e(  3 -  4) =      5.07318  eV     2   --> E    L_3       
     e(  5 -  5) =      7.79071  eV     1   --> A_1  L_1       
     e(  6 -  7) =      9.56083  eV     2   --> E    L_3       
     e(  8 -  8) =     13.73118  eV     1   --> A_1  L_1       

 **************************************************************************

 **************************************************************************

                    xk=(   0.30000,   0.30000,   0.30000  )

     Band symmetry, C_3v (3m)   point group:

     e(  1 -  1) =     -4.74394  eV     1   --> A_1  L_1       
     e(  2 -  2) =      1.26130  eV     1   --> A_1  L_1       
     e(  3 -  4) =      5.13903  eV     2   --> E    L_3       
     e(  5 -  5) =      7.86424  eV     1   --> A_1  L_1       
     e(  6 -  7) =      9.57844  eV     2   --> E    L_3       
     e(  8 -  8) =     13.53374  eV     1   --> A_1  L_1       

 **************************************************************************

 **************************************************************************

                    xk=(   0.27500,   0.27500,   0.27500  )

     Band symmetry, C_3v (3m)   point group:

     e(  1 -  1) =     -4.91691  eV     1   --> A_1  L_1       
     e(  2 -  2) =      1.68817  eV     1   --> A_1  L_1       
     e(  3 -  4) =      5.21278  eV     2   --> E    L_3       
     e(  5 -  5) =      7.94596  eV     1   --> A_1  L_1       
     e(  6 -  7) =      9.57709  eV     2   --> E    L_3       
     e(  8 -  8) =     13.21261  eV     1   --> A_1  L_1       

 **************************************************************************

 **************************************************************************

                    xk=(   0.25000,   0.25000,   0.25000  )

     Band symmetry, C_3v (3m)   point group:

     e(  1 -  1) =     -5.07830  eV     1   --> A_1  L_1       
     e(  2 -  2) =      2.13023  eV     1   --> A_1  L_1       
     e(  3 -  4) =      5.29384  eV     2   --> E    L_3       
     e(  5 -  5) =      8.03488  eV     1   --> A_1  L_1       
     e(  6 -  7) =      9.55031  eV     2   --> E    L_3       
     e(  8 -  8) =     12.82553  eV     1   --> A_1  L_1       

 **************************************************************************

 **************************************************************************

                    xk=(   0.22500,   0.22500,   0.22500  )

     Band symmetry, C_3v (3m)   point group:

     e(  1 -  1) =     -5.22675  eV     1   --> A_1  L_1       
     e(  2 -  2) =      2.58468  eV     1   --> A_1  L_1       
     e(  3 -  4) =      5.38137  eV     2   --> E    L_3       
     e(  5 -  5) =      8.12979  eV     1   --> A_1  L_1       
     e(  6 -  7) =      9.49404  eV     2   --> E    L_3       
     e(  8 -  8) =     12.40816  eV     1   --> A_1  L_1       

 **************************************************************************

 **************************************************************************

                    xk=(   0.20000,   0.20000,   0.20000  )

     Band symmetry, C_3v (3m)   point group:

     e(  1 -  1) =     -5.36128  eV     1   --> A_1  L_1       
     e(  2 -  2) =      3.04857  eV     1   --> A_1  L_1       
     e(  3 -  4) =      5.47418  eV     2   --> E    L_3       
     e(  5 -  5) =      8.22880  eV     1   --> A_1  L_1       
     e(  6 -  7) =      9.40818  eV     2   --> E    L_3       
     e(  8 -  8) =     11.97609  eV     1   --> A_1  L_1       

 **************************************************************************

 **************************************************************************

                    xk=(   0.17500,   0.17500,   0.17500  )

     Band symmetry, C_3v (3m)   point group:

     e(  1 -  1) =     -5.48118  eV     1   --> A_1  L_1       
     e(  2 -  2) =      3.51850  eV     1   --> A_1  L_1       
     e(  3 -  4) =      5.57063  eV     2   --> E    L_3       
     e(  5 -  5) =      8.32939  eV     1   --> A_1  L_1       
     e(  6 -  7) =      9.29717  eV     2   --> E    L_3       
     e(  8 -  8) =     11.53707  eV     1   --> A_1  L_1       

 **************************************************************************

 **************************************************************************

                    xk=(   0.15000,   0.15000,   0.15000  )

     Band symmetry, C_3v (3m)   point group:

     e(  1 -  1) =     -5.58590  eV     1   --> A_1  L_1       
     e(  2 -  2) =      3.99002  eV     1   --> A_1  L_1       
     e(  3 -  4) =      5.66845  eV     2   --> E    L_3       
     e(  5 -  5) =      8.42804  eV     1   --> A_1  L_1       
     e(  6 -  7) =      9.16901  eV     2   --> E    L_3       
     e(  8 -  8) =     11.09670  eV     1   --> A_1  L_1       

 **************************************************************************

 **************************************************************************

                    xk=(   0.12500,   0.12500,   0.12500  )

     Band symmetry, C_3v (3m)   point group:

     e(  1 -  1) =     -5.67508  eV     1   --> A_1  L_1       
     e(  2 -  2) =      4.45687  eV     1   --> A_1  L_1       
     e(  3 -  4) =      5.76460  eV     2   --> E    L_3       
     e(  5 -  5) =      8.51982  eV     1   --> A_1  L_1       
     e(  6 -  7) =      9.03375  eV     2   --> E    L_3       
     e(  8 -  8) =     10.66199  eV     1   --> A_1  L_1       

 **************************************************************************

 **************************************************************************

                    xk=(   0.10000,   0.10000,   0.10000  )

     Band symmetry, C_3v (3m)   point group:

     e(  1 -  1) =     -5.74839  eV     1   --> A_1  L_1       
     e(  2 -  2) =      4.90941  eV     1   --> A_1  L_1       
     e(  3 -  4) =      5.85509  eV     2   --> E    L_3       
     e(  5 -  5) =      8.59747  eV     1   --> A_1  L_1       
     e(  6 -  7) =      8.90213  eV     2   --> E    L_3       
     e(  8 -  8) =     10.24482  eV     1   --> A_1  L_1       

 **************************************************************************

 **************************************************************************

                    xk=(   0.07500,   0.07500,   0.07500  )

     Band symmetry, C_3v (3m)   point group:

     e(  1 -  1) =     -5.80561  eV     1   --> A_1  L_1       
     e(  2 -  2) =      5.33165  eV     1   --> A_1  L_1       
     e(  3 -  4) =      5.93489  eV     2   --> E    L_3       
     e(  5 -  5) =      8.65003  eV     1   --> A_1  L_1       
     e(  6 -  7) =      8.78478  eV     2   --> E    L_3       
     e(  8 -  8) =      9.86634  eV     1   --> A_1  L_1       

 **************************************************************************

 **************************************************************************

                    xk=(   0.05000,   0.05000,   0.05000  )

     Band symmetry, C_3v (3m)   point group:

     e(  1 -  1) =     -5.84659  eV     1   --> A_1  L_1       
     e(  2 -  2) =      5.69594  eV     1   --> A_1  L_1       
     e(  3 -  4) =      5.99821  eV     2   --> E    L_3       
     e(  5 -  5) =      8.66294  eV     1   --> A_1  L_1       
     e(  6 -  7) =      8.69175  eV     2   --> E    L_3       
     e(  8 -  8) =      9.56315  eV     1   --> A_1  L_1       

 **************************************************************************

 **************************************************************************

                    xk=(   0.02500,   0.02500,   0.02500  )

     Band symmetry, C_3v (3m)   point group:

     e(  1 -  1) =     -5.87122  eV     1   --> A_1  L_1       
     e(  2 -  2) =      5.95626  eV     1   --> A_1  L_1       
     e(  3 -  4) =      6.03925  eV     2   --> E    L_3       
     e(  5 -  6) =      8.63178  eV     2   --> E    L_3       
     e(  7 -  7) =      8.63448  eV     1   --> A_1  L_1       
     e(  8 -  8) =      9.37804  eV     1   --> A_1  L_1       

 **************************************************************************

 **************************************************************************

                    xk=(   0.00000,   0.00000,   0.00000  )

     point group O_h (m-3m) 
     there are 10 classes
     the character table:

       E     8C3   3C2   6C4   6C2'  i     8S6   3s_h  6S4   6s_d 
A_1g   1.00  1.00  1.00  1.00  1.00  1.00  1.00  1.00  1.00  1.00
A_2g   1.00  1.00  1.00 -1.00 -1.00  1.00  1.00  1.00 -1.00 -1.00
E_g    2.00 -1.00  2.00  0.00  0.00  2.00 -1.00  2.00  0.00  0.00
T_1g   3.00  0.00 -1.00  1.00 -1.00  3.00  0.00 -1.00  1.00 -1.00
T_2g   3.00  0.00 -1.00 -1.00  1.00  3.00  0.00 -1.00 -1.00  1.00
A_1u   1.00  1.00  1.00  1.00  1.00 -1.00 -1.00 -1.00 -1.00 -1.00
A_2u   1.00  1.00  1.00 -1.00 -1.00 -1.00 -1.00 -1.00  1.00  1.00
E_u    2.00 -1.00  2.00  0.00  0.00 -2.00  1.00 -2.00  0.00  0.00
T_1u   3.00  0.00 -1.00  1.00 -1.00 -3.00  0.00  1.00 -1.00  1.00
T_2u   3.00  0.00 -1.00 -1.00  1.00 -3.00  0.00  1.00  1.00 -1.00

     the symmetry operations in each class and the name of the first element:

     E        1
                                                                 
     8C3     17   19   20   18   24   21   22   23
                                                                 
     3C2      2    4    3
                                                                 
     6C4      7    8   15   16   12   11
                                                                 
     6C2'     5    6   14   13   10    9
                                                                 
     i       25
                                                                 
     8S6     41   43   44   42   48   45   46   47
                                                                 
     3s_h    26   28   27
                                                                 
     6S4     31   32   39   40   36   35
                                                                 
     6s_d    29   30   38   37   34   33
                                                                 

     Band symmetry, O_h (m-3m)  point group:

     e(  1 -  1) =     -5.87944  eV     1   --> A_1g G_1   G_1+
     e(  2 -  4) =      6.05350  eV     3   --> T_2g G_25' G_5+
     e(  5 -  7) =      8.61104  eV     3   --> T_1u G_15  G_4-
     e(  8 -  8) =      9.32029  eV     1   --> A_2u G_2'  G_2-

 **************************************************************************

 **************************************************************************

                    xk=(   0.03333,   0.00000,   0.00000  )

     point group C_4v (4mm) 
     there are  5 classes
     the character table:

       E     2C4   C2    2s_v  2s_d 
A_1    1.00  1.00  1.00  1.00  1.00
A_2    1.00  1.00  1.00 -1.00 -1.00
B_1    1.00 -1.00  1.00  1.00 -1.00
B_2    1.00 -1.00  1.00 -1.00  1.00
E      2.00  0.00 -2.00  0.00  0.00

     the symmetry operations in each class and the name of the first element:

     E        1
                                                                 
     2C4      3    4
                                                                 
     C2       2
                                                                 
     2s_v     5    6
                                                                 
     2s_d     7    8
                                                                 

     Band symmetry, C_4v (4mm)  point group:

     e(  1 -  1) =     -5.87457  eV     1   --> A_1  G_1 D_1   
     e(  2 -  2) =      6.02002  eV     1   --> B_2  G_4 D_2'  
     e(  3 -  4) =      6.03234  eV     2   --> E    G_5 D_5   
     e(  5 -  5) =      8.59832  eV     1   --> A_1  G_1 D_1   
     e(  6 -  7) =      8.63806  eV     2   --> E    G_5 D_5   
     e(  8 -  8) =      9.35295  eV     1   --> B_2  G_4 D_2'  

 **************************************************************************

 **************************************************************************

                    xk=(   0.06667,   0.00000,   0.00000  )

     Band symmetry, C_4v (4mm)  point group:

     e(  1 -  1) =     -5.85996  eV     1   --> A_1  G_1 D_1   
     e(  2 -  2) =      5.92357  eV     1   --> B_2  G_4 D_2'  
     e(  3 -  4) =      5.97149  eV     2   --> E    G_5 D_5   
     e(  5 -  5) =      8.56090  eV     1   --> A_1  G_1 D_1   
     e(  6 -  7) =      8.71648  eV     2   --> E    G_5 D_5   
     e(  8 -  8) =      9.44640  eV     1   --> B_2  G_4 D_2'  

 **************************************************************************

 **************************************************************************

                    xk=(   0.10000,   0.00000,   0.00000  )

     Band symmetry, C_4v (4mm)  point group:

     e(  1 -  1) =     -5.83563  eV     1   --> A_1  G_1 D_1   
     e(  2 -  2) =      5.77411  eV     1   --> B_2  G_4 D_2'  
     e(  3 -  4) =      5.87764  eV     2   --> E    G_5 D_5   
     e(  5 -  5) =      8.50083  eV     1   --> A_1  G_1 D_1   
     e(  6 -  7) =      8.83959  eV     2   --> E    G_5 D_5   
     e(  8 -  8) =      9.58876  eV     1   --> B_2  G_4 D_2'  

 **************************************************************************

 **************************************************************************

                    xk=(   0.13333,   0.00000,   0.00000  )

     Band symmetry, C_4v (4mm)  point group:

     e(  1 -  1) =     -5.80157  eV     1   --> A_1  G_1 D_1   
     e(  2 -  2) =      5.58350  eV     1   --> B_2  G_4 D_2'  
     e(  3 -  4) =      5.75897  eV     2   --> E    G_5 D_5   
     e(  5 -  5) =      8.42114  eV     1   --> A_1  G_1 D_1   
     e(  6 -  7) =      8.99911  eV     2   --> E    G_5 D_5   
     e(  8 -  8) =      9.76434  eV     1   --> B_2  G_4 D_2'  

 **************************************************************************

 **************************************************************************

                    xk=(   0.16667,   0.00000,   0.00000  )

     Band symmetry, C_4v (4mm)  point group:

     e(  1 -  1) =     -5.75783  eV     1   --> A_1  G_1 D_1   
     e(  2 -  2) =      5.36248  eV     1   --> B_2  G_4 D_2'  
     e(  3 -  4) =      5.62314  eV     2   --> E    G_5 D_5   
     e(  5 -  5) =      8.32537  eV     1   --> A_1  G_1 D_1   
     e(  6 -  7) =      9.18731  eV     2   --> E    G_5 D_5   
     e(  8 -  8) =      9.95562  eV     1   --> B_2  G_4 D_2'  

 **************************************************************************

 **************************************************************************

                    xk=(   0.20000,   0.00000,   0.00000  )

     Band symmetry, C_4v (4mm)  point group:

     e(  1 -  1) =     -5.70443  eV     1   --> A_1  G_1 D_1   
     e(  2 -  2) =      5.11948  eV     1   --> B_2  G_4 D_2'  
     e(  3 -  4) =      5.47641  eV     2   --> E    G_5 D_5   
     e(  5 -  5) =      8.21716  eV     1   --> A_1  G_1 D_1   
     e(  6 -  7) =      9.39781  eV     2   --> E    G_5 D_5   
     e(  8 -  8) =     10.14210  eV     1   --> B_2  G_4 D_2'  

 **************************************************************************

 **************************************************************************

                    xk=(   0.23333,   0.00000,   0.00000  )

     Band symmetry, C_4v (4mm)  point group:

     e(  1 -  1) =     -5.64140  eV     1   --> A_1  G_1 D_1   
     e(  2 -  2) =      4.86073  eV     1   --> B_2  G_4 D_2'  
     e(  3 -  4) =      5.32354  eV     2   --> E    G_5 D_5   
     e(  5 -  5) =      8.10001  eV     1   --> A_1  G_1 D_1   
     e(  6 -  7) =      9.62572  eV     2   --> E    G_5 D_5   
     e(  8 -  8) =     10.29771  eV     1   --> B_2  G_4 D_2'  

 **************************************************************************

 **************************************************************************

                    xk=(   0.26667,   0.00000,   0.00000  )

     Band symmetry, C_4v (4mm)  point group:

     e(  1 -  1) =     -5.56876  eV     1   --> A_1  G_1 D_1   
     e(  2 -  2) =      4.59063  eV     1   --> B_2  G_4 D_2'  
     e(  3 -  4) =      5.16807  eV     2   --> E    G_5 D_5   
     e(  5 -  5) =      7.97707  eV     1   --> A_1  G_1 D_1   
     e(  6 -  7) =      9.86738  eV     2   --> E    G_5 D_5   
     e(  8 -  8) =     10.38914  eV     1   --> B_2  G_4 D_2'  

 **************************************************************************

 **************************************************************************

                    xk=(   0.30000,   0.00000,   0.00000  )

     Band symmetry, C_4v (4mm)  point group:

     e(  1 -  1) =     -5.48658  eV     1   --> A_1  G_1 D_1   
     e(  2 -  2) =      4.31231  eV     1   --> B_2  G_4 D_2'  
     e(  3 -  4) =      5.01260  eV     2   --> E    G_5 D_5   
     e(  5 -  5) =      7.85108  eV     1   --> A_1  G_1 D_1   
     e(  6 -  7) =     10.12005  eV     2   --> E    G_5 D_5   
     e(  8 -  8) =     10.38658  eV     1   --> B_2  G_4 D_2'  

 **************************************************************************

 **************************************************************************

                    xk=(   0.33333,   0.00000,   0.00000  )

     Band symmetry, C_4v (4mm)  point group:

     e(  1 -  1) =     -5.39490  eV     1   --> A_1  G_1 D_1   
     e(  2 -  2) =      4.02797  eV     1   --> B_2  G_4 D_2'  
     e(  3 -  4) =      4.85906  eV     2   --> E    G_5 D_5   
     e(  5 -  5) =      7.72439  eV     1   --> A_1  G_1 D_1   
     e(  6 -  6) =     10.28542  eV     1   --> B_2  G_4 D_2'  
     e(  7 -  8) =     10.38165  eV     2   --> E    G_5 D_5   

 **************************************************************************

 **************************************************************************

                    xk=(   0.36667,   0.00000,   0.00000  )

     Band symmetry, C_4v (4mm)  point group:

     e(  1 -  1) =     -5.29378  eV     1   --> A_1  G_1 D_1   
     e(  2 -  2) =      3.73919  eV     1   --> B_2  G_4 D_2'  
     e(  3 -  4) =      4.70887  eV     2   --> E    G_5 D_5   
     e(  5 -  5) =      7.59898  eV     1   --> A_1  G_1 D_1   
     e(  6 -  6) =     10.10901  eV     1   --> B_2  G_4 D_2'  
     e(  7 -  8) =     10.65062  eV     2   --> E    G_5 D_5   

 **************************************************************************

 **************************************************************************

                    xk=(   0.40000,   0.00000,   0.00000  )

     Band symmetry, C_4v (4mm)  point group:

     e(  1 -  1) =     -5.18329  eV     1   --> A_1  G_1 D_1   
     e(  2 -  2) =      3.44715  eV     1   --> B_2  G_4 D_2'  
     e(  3 -  4) =      4.56315  eV     2   --> E    G_5 D_5   
     e(  5 -  5) =      7.47648  eV     1   --> A_1  G_1 D_1   
     e(  6 -  6) =      9.88727  eV     1   --> B_2  G_4 D_2'  
     e(  7 -  8) =     10.92573  eV     2   --> E    G_5 D_5   

 **************************************************************************

 **************************************************************************

                    xk=(   0.43333,   0.00000,   0.00000  )

     Band symmetry, C_4v (4mm)  point group:

     e(  1 -  1) =     -5.06352  eV     1   --> A_1  G_1 D_1   
     e(  2 -  2) =      3.15270  eV     1   --> B_2  G_4 D_2'  
     e(  3 -  4) =      4.42274  eV     2   --> E    G_5 D_5   
     e(  5 -  5) =      7.35830  eV     1   --> A_1  G_1 D_1   
     e(  6 -  6) =      9.64258  eV     1   --> B_2  G_4 D_2'  
     e(  7 -  8) =     11.20603  eV     2   --> E    G_5 D_5   

 **************************************************************************

 **************************************************************************

                    xk=(   0.46667,   0.00000,   0.00000  )

     Band symmetry, C_4v (4mm)  point group:

     e(  1 -  1) =     -4.93452  eV     1   --> A_1  G_1 D_1   
     e(  2 -  2) =      2.85657  eV     1   --> B_2  G_4 D_2'  
     e(  3 -  4) =      4.28831  eV     2   --> E    G_5 D_5   
     e(  5 -  5) =      7.24559  eV     1   --> A_1  G_1 D_1   
     e(  6 -  6) =      9.38902  eV     1   --> B_2  G_4 D_2'  
     e(  7 -  8) =     11.49076  eV     2   --> E    G_5 D_5   

 **************************************************************************

 **************************************************************************

                    xk=(   0.50000,   0.00000,   0.00000  )

     Band symmetry, C_4v (4mm)  point group:

     e(  1 -  1) =     -4.79642  eV     1   --> A_1  G_1 D_1   
     e(  2 -  2) =      2.55930  eV     1   --> B_2  G_4 D_2'  
     e(  3 -  4) =      4.16039  eV     2   --> E    G_5 D_5   
     e(  5 -  5) =      7.13934  eV     1   --> A_1  G_1 D_1   
     e(  6 -  6) =      9.13510  eV     1   --> B_2  G_4 D_2'  
     e(  7 -  8) =     11.77935  eV     2   --> E    G_5 D_5   

 **************************************************************************

 **************************************************************************

                    xk=(   0.53333,   0.00000,   0.00000  )

     Band symmetry, C_4v (4mm)  point group:

     e(  1 -  1) =     -4.64930  eV     1   --> A_1  G_1 D_1   
     e(  2 -  2) =      2.26138  eV     1   --> B_2  G_4 D_2'  
     e(  3 -  4) =      4.03940  eV     2   --> E    G_5 D_5   
     e(  5 -  5) =      7.04037  eV     1   --> A_1  G_1 D_1   
     e(  6 -  6) =      8.88608  eV     1   --> B_2  G_4 D_2'  
     e(  7 -  8) =     12.07131  eV     2   --> E    G_5 D_5   

 **************************************************************************

 **************************************************************************

                    xk=(   0.56667,   0.00000,   0.00000  )

     Band symmetry, C_4v (4mm)  point group:

     e(  1 -  1) =     -4.49329  eV     1   --> A_1  G_1 D_1   
     e(  2 -  2) =      1.96327  eV     1   --> B_2  G_4 D_2'  
     e(  3 -  4) =      3.92570  eV     2   --> E    G_5 D_5   
     e(  5 -  5) =      6.94941  eV     1   --> A_1  G_1 D_1   
     e(  6 -  6) =      8.64534  eV     1   --> B_2  G_4 D_2'  
     e(  7 -  8) =     12.36631  eV     2   --> E    G_5 D_5   

 **************************************************************************

 **************************************************************************

                    xk=(   0.60000,   0.00000,   0.00000  )

     Band symmetry, C_4v (4mm)  point group:

     e(  1 -  1) =     -4.32850  eV     1   --> A_1  G_1 D_1   
     e(  2 -  2) =      1.66540  eV     1   --> B_2  G_4 D_2'  
     e(  3 -  4) =      3.81957  eV     2   --> E    G_5 D_5   
     e(  5 -  5) =      6.86708  eV     1   --> A_1  G_1 D_1   
     e(  6 -  6) =      8.41506  eV     1   --> B_2  G_4 D_2'  
     e(  7 -  8) =     12.66404  eV     2   --> E    G_5 D_5   

 **************************************************************************

 **************************************************************************

                    xk=(   0.63333,   0.00000,   0.00000  )

     Band symmetry, C_4v (4mm)  point group:

     e(  1 -  1) =     -4.15507  eV     1   --> A_1  G_1 D_1   
     e(  2 -  2) =      1.36821  eV     1   --> B_2  G_4 D_2'  
     e(  3 -  4) =      3.72126  eV     2   --> E    G_5 D_5   
     e(  5 -  5) =      6.79392  eV     1   --> A_1  G_1 D_1   
     e(  6 -  6) =      8.19675  eV     1   --> B_2  G_4 D_2'  
     e(  7 -  8) =     12.96430  eV     2   --> E    G_5 D_5   

 **************************************************************************

 **************************************************************************

                    xk=(   0.66667,   0.00000,   0.00000  )

     Band symmetry, C_4v (4mm)  point group:

     e(  1 -  1) =     -3.97315  eV     1   --> A_1  G_1 D_1   
     e(  2 -  2) =      1.07212  eV     1   --> B_2  G_4 D_2'  
     e(  3 -  4) =      3.63095  eV     2   --> E    G_5 D_5   
     e(  5 -  5) =      6.73041  eV     1   --> A_1  G_1 D_1   
     e(  6 -  6) =      7.99137  eV     1   --> B_2  G_4 D_2'  
     e(  7 -  8) =     13.26689  eV     2   --> E    G_5 D_5   

 **************************************************************************

 **************************************************************************

                    xk=(   0.70000,   0.00000,   0.00000  )

     Band symmetry, C_4v (4mm)  point group:

     e(  1 -  1) =     -3.78292  eV     1   --> A_1  G_1 D_1   
     e(  2 -  2) =      0.77758  eV     1   --> B_2  G_4 D_2'  
     e(  3 -  4) =      3.54883  eV     2   --> E    G_5 D_5   
     e(  5 -  5) =      6.67698  eV     1   --> A_1  G_1 D_1   
     e(  6 -  6) =      7.79955  eV     1   --> B_2  G_4 D_2'  
     e(  7 -  8) =     13.57164  eV     2   --> E    G_5 D_5   

 **************************************************************************

 **************************************************************************

                    xk=(   0.73333,   0.00000,   0.00000  )

     Band symmetry, C_4v (4mm)  point group:

     e(  1 -  1) =     -3.58453  eV     1   --> A_1  G_1 D_1   
     e(  2 -  2) =      0.48504  eV     1   --> B_2  G_4 D_2'  
     e(  3 -  4) =      3.47502  eV     2   --> E    G_5 D_5   
     e(  5 -  5) =      6.63405  eV     1   --> A_1  G_1 D_1   
     e(  6 -  6) =      7.62171  eV     1   --> B_2  G_4 D_2'  
     e(  7 -  8) =     13.87837  eV     2   --> E    G_5 D_5   

 **************************************************************************

 **************************************************************************

                    xk=(   0.76667,   0.00000,   0.00000  )

     Band symmetry, C_4v (4mm)  point group:

     e(  1 -  1) =     -3.37819  eV     1   --> A_1  G_1 D_1   
     e(  2 -  2) =      0.19493  eV     1   --> B_2  G_4 D_2'  
     e(  3 -  4) =      3.40965  eV     2   --> E    G_5 D_5   
     e(  5 -  5) =      6.60196  eV     1   --> A_1  G_1 D_1   
     e(  6 -  6) =      7.45807  eV     1   --> B_2  G_4 D_2'  
     e(  7 -  8) =     14.18672  eV     2   --> E    G_5 D_5   

 **************************************************************************

 **************************************************************************

                    xk=(   0.80000,   0.00000,   0.00000  )

     Band symmetry, C_4v (4mm)  point group:

     e(  1 -  1) =     -3.16410  eV     1   --> A_1  G_1 D_1   
     e(  2 -  2) =     -0.09231  eV     1   --> B_2  G_4 D_2'  
     e(  3 -  4) =      3.35282  eV     2   --> E    G_5 D_5   
     e(  5 -  5) =      6.58107  eV     1   --> A_1  G_1 D_1   
     e(  6 -  6) =      7.30871  eV     1   --> B_2  G_4 D_2'  
     e(  7 -  8) =     14.49620  eV     2   --> E    G_5 D_5   

 **************************************************************************

 **************************************************************************

                    xk=(   0.83333,   0.00000,   0.00000  )

     Band symmetry, C_4v (4mm)  point group:

     e(  1 -  1) =     -2.94248  eV     1   --> A_1  G_1 D_1   
     e(  2 -  2) =     -0.37619  eV     1   --> B_2  G_4 D_2'  
     e(  3 -  4) =      3.30460  eV     2   --> E    G_5 D_5   
     e(  5 -  5) =      6.57172  eV     1   --> A_1  G_1 D_1   
     e(  6 -  6) =      7.17366  eV     1   --> B_2  G_4 D_2'  
     e(  7 -  8) =     14.80589  eV     2   --> E    G_5 D_5   

 **************************************************************************

 **************************************************************************

                    xk=(   0.86667,   0.00000,   0.00000  )

     Band symmetry, C_4v (4mm)  point group:

     e(  1 -  1) =     -2.71359  eV     1   --> A_1  G_1 D_1   
     e(  2 -  2) =     -0.65633  eV     1   --> B_2  G_4 D_2'  
     e(  3 -  4) =      3.26507  eV     2   --> E    G_5 D_5   
     e(  5 -  5) =      6.57417  eV     1   --> A_1  G_1 D_1   
     e(  6 -  6) =      7.05277  eV     1   --> B_2  G_4 D_2'  
     e(  7 -  8) =     15.11396  eV     2   --> E    G_5 D_5   

 **************************************************************************

 **************************************************************************

                    xk=(   0.90000,   0.00000,   0.00000  )

     Band symmetry, C_4v (4mm)  point group:

     e(  1 -  1) =     -2.47769  eV     1   --> A_1  G_1 D_1   
     e(  2 -  2) =     -0.93228  eV     1   --> B_2  G_4 D_2'  
     e(  3 -  4) =      3.23427  eV     2   --> E    G_5 D_5   
     e(  5 -  5) =      6.58874  eV     1   --> A_1  G_1 D_1   
     e(  6 -  6) =      6.94595  eV     1   --> B_2  G_4 D_2'  
     e(  7 -  8) =     15.41645  eV     2   --> E    G_5 D_5   

 **************************************************************************

 **************************************************************************

                    xk=(   0.93333,   0.00000,   0.00000  )

     Band symmetry, C_4v (4mm)  point group:

     e(  1 -  1) =     -2.23506  eV     1   --> A_1  G_1 D_1   
     e(  2 -  2) =     -1.20361  eV     1   --> B_2  G_4 D_2'  
     e(  3 -  4) =      3.21224  eV     2   --> E    G_5 D_5   
     e(  5 -  5) =      6.61571  eV     1   --> A_1  G_1 D_1   
     e(  6 -  6) =      6.85302  eV     1   --> B_2  G_4 D_2'  
     e(  7 -  8) =     15.70345  eV     2   --> E    G_5 D_5   

 **************************************************************************

 **************************************************************************

                    xk=(   0.96667,   0.00000,   0.00000  )

     Band symmetry, C_4v (4mm)  point group:

     e(  1 -  1) =     -1.98599  eV     1   --> A_1  G_1 D_1   
     e(  2 -  2) =     -1.46992  eV     1   --> B_2  G_4 D_2'  
     e(  3 -  4) =      3.19901  eV     2   --> E    G_5 D_5   
     e(  5 -  5) =      6.65536  eV     1   --> A_1  G_1 D_1   
     e(  6 -  6) =      6.77376  eV     1   --> B_2  G_4 D_2'  
     e(  7 -  8) =     15.94531  eV     2   --> E    G_5 D_5   

 **************************************************************************

 **************************************************************************

                    xk=(   1.00000,   0.00000,   0.00000  )

     zone border point and non-symmorphic group 
     symmetry decomposition not available

 **************************************************************************

 **************************************************************************

                    xk=(   1.00000,   0.02500,   0.02500  )

     zone border point and non-symmorphic group 
     symmetry decomposition not available

 **************************************************************************

 **************************************************************************

                    xk=(   1.00000,   0.05000,   0.05000  )

     zone border point and non-symmorphic group 
     symmetry decomposition not available

 **************************************************************************

 **************************************************************************

                    xk=(   1.00000,   0.07500,   0.07500  )

     zone border point and non-symmorphic group 
     symmetry decomposition not available

 **************************************************************************

 **************************************************************************

                    xk=(   1.00000,   0.10000,   0.10000  )

     zone border point and non-symmorphic group 
     symmetry decomposition not available

 **************************************************************************

 **************************************************************************

                    xk=(   1.00000,   0.12500,   0.12500  )

     zone border point and non-symmorphic group 
     symmetry decomposition not available

 **************************************************************************

 **************************************************************************

                    xk=(   1.00000,   0.15000,   0.15000  )

     zone border point and non-symmorphic group 
     symmetry decomposition not available

 **************************************************************************

 **************************************************************************

                    xk=(   1.00000,   0.17500,   0.17500  )

     zone border point and non-symmorphic group 
     symmetry decomposition not available

 **************************************************************************

 **************************************************************************

                    xk=(   1.00000,   0.20000,   0.20000  )

     zone border point and non-symmorphic group 
     symmetry decomposition not available

 **************************************************************************

 **************************************************************************

                    xk=(   1.00000,   0.22500,   0.22500  )

     zone border point and non-symmorphic group 
     symmetry decomposition not available

 **************************************************************************

 **************************************************************************

                    xk=(   1.00000,   0.25000,   0.25000  )

     zone border point and non-symmorphic group 
     symmetry decomposition not available

 **************************************************************************

 **************************************************************************

                    xk=(   0.96667,   0.24167,   0.24167  )

     point group C_s (m)    
     there are  2 classes
     the character table:

       E     s    
A'     1.00  1.00
A''    1.00 -1.00

     the symmetry operations in each class and the name of the first element:

     E        1
                                                                 
     s        2
                                                                 

     Band symmetry, C_s (m)     point group:

     e(  1 -  1) =     -2.13988  eV     1   --> A'             
     e(  2 -  2) =     -1.14496  eV     1   --> A'             
     e(  3 -  3) =      1.76586  eV     1   --> A'             
     e(  4 -  4) =      3.60036  eV     1   --> A''            
     e(  5 -  5) =      7.17969  eV     1   --> A'             
     e(  6 -  6) =      9.96862  eV     1   --> A'             
     e(  7 -  7) =     13.50981  eV     1   --> A''            
     e(  8 -  8) =     13.83627  eV     1   --> A'             

 **************************************************************************

 **************************************************************************

                    xk=(   0.93333,   0.23333,   0.23333  )

     Band symmetry, C_s (m)     point group:

     e(  1 -  1) =     -2.22673  eV     1   --> A'             
     e(  2 -  2) =     -1.06821  eV     1   --> A'             
     e(  3 -  3) =      1.84031  eV     1   --> A'             
     e(  4 -  4) =      3.58601  eV     1   --> A''            
     e(  5 -  5) =      7.16637  eV     1   --> A'             
     e(  6 -  6) =      9.82150  eV     1   --> A'             
     e(  7 -  7) =     13.42676  eV     1   --> A''            
     e(  8 -  8) =     13.62188  eV     1   --> A'             

 **************************************************************************

 **************************************************************************

                    xk=(   0.90000,   0.22500,   0.22500  )

     Band symmetry, C_s (m)     point group:

     e(  1 -  1) =     -2.37374  eV     1   --> A'             
     e(  2 -  2) =     -0.93151  eV     1   --> A'             
     e(  3 -  3) =      1.93917  eV     1   --> A'             
     e(  4 -  4) =      3.58078  eV     1   --> A''            
     e(  5 -  5) =      7.16540  eV     1   --> A'             
     e(  6 -  6) =      9.68847  eV     1   --> A'             
     e(  7 -  7) =     13.29670  eV     1   --> A''            
     e(  8 -  8) =     13.40315  eV     1   --> A'             

 **************************************************************************

 **************************************************************************

                    xk=(   0.86667,   0.21667,   0.21667  )

     Band symmetry, C_s (m)     point group:

     e(  1 -  1) =     -2.55486  eV     1   --> A'             
     e(  2 -  2) =     -0.75734  eV     1   --> A'             
     e(  3 -  3) =      2.05856  eV     1   --> A'             
     e(  4 -  4) =      3.58478  eV     1   --> A''            
     e(  5 -  5) =      7.17641  eV     1   --> A'             
     e(  6 -  6) =      9.57049  eV     1   --> A'             
     e(  7 -  7) =     13.14919  eV     1   --> A''            
     e(  8 -  8) =     13.18442  eV     1   --> A'             

 **************************************************************************

 **************************************************************************

                    xk=(   0.83333,   0.20833,   0.20833  )

     Band symmetry, C_s (m)     point group:

     e(  1 -  1) =     -2.75343  eV     1   --> A'             
     e(  2 -  2) =     -0.55951  eV     1   --> A'             
     e(  3 -  3) =      2.19521  eV     1   --> A'             
     e(  4 -  4) =      3.59811  eV     1   --> A''            
     e(  5 -  5) =      7.19876  eV     1   --> A'             
     e(  6 -  6) =      9.46864  eV     1   --> A'             
     e(  7 -  7) =     12.96670  eV     1   --> A'             
     e(  8 -  8) =     12.99574  eV     1   --> A''            

 **************************************************************************

 **************************************************************************

                    xk=(   0.80000,   0.20000,   0.20000  )

     Band symmetry, C_s (m)     point group:

     e(  1 -  1) =     -2.96002  eV     1   --> A'             
     e(  2 -  2) =     -0.34524  eV     1   --> A'             
     e(  3 -  3) =      2.34636  eV     1   --> A'             
     e(  4 -  4) =      3.62082  eV     1   --> A''            
     e(  5 -  5) =      7.23155  eV     1   --> A'             
     e(  6 -  6) =      9.38421  eV     1   --> A'             
     e(  7 -  7) =     12.75042  eV     1   --> A'             
     e(  8 -  8) =     12.84090  eV     1   --> A''            

 **************************************************************************

 **************************************************************************

                    xk=(   0.76667,   0.19167,   0.19167  )

     Band symmetry, C_s (m)     point group:

     e(  1 -  1) =     -3.16909  eV     1   --> A'             
     e(  2 -  2) =     -0.11828  eV     1   --> A'             
     e(  3 -  3) =      2.50961  eV     1   --> A'             
     e(  4 -  4) =      3.65294  eV     1   --> A''            
     e(  5 -  5) =      7.27361  eV     1   --> A'             
     e(  6 -  6) =      9.31874  eV     1   --> A'             
     e(  7 -  7) =     12.53580  eV     1   --> A'             
     e(  8 -  8) =     12.68634  eV     1   --> A''            

 **************************************************************************

 **************************************************************************

                    xk=(   0.73333,   0.18333,   0.18333  )

     Band symmetry, C_s (m)     point group:

     e(  1 -  1) =     -3.37717  eV     1   --> A'             
     e(  2 -  2) =      0.11925  eV     1   --> A'             
     e(  3 -  3) =      2.68290  eV     1   --> A'             
     e(  4 -  4) =      3.69448  eV     1   --> A''            
     e(  5 -  5) =      7.32339  eV     1   --> A'             
     e(  6 -  6) =      9.27395  eV     1   --> A'             
     e(  7 -  7) =     12.32300  eV     1   --> A'             
     e(  8 -  8) =     12.53231  eV     1   --> A''            

 **************************************************************************

 **************************************************************************

                    xk=(   0.70000,   0.17500,   0.17500  )

     Band symmetry, C_s (m)     point group:

     e(  1 -  1) =     -3.58193  eV     1   --> A'             
     e(  2 -  2) =      0.36611  eV     1   --> A'             
     e(  3 -  3) =      2.86436  eV     1   --> A'             
     e(  4 -  4) =      3.74542  eV     1   --> A''            
     e(  5 -  5) =      7.37905  eV     1   --> A'             
     e(  6 -  6) =      9.25179  eV     1   --> A'             
     e(  7 -  7) =     12.11218  eV     1   --> A'             
     e(  8 -  8) =     12.37831  eV     1   --> A''            

 **************************************************************************

 **************************************************************************

                    xk=(   0.66667,   0.16667,   0.16667  )

     Band symmetry, C_s (m)     point group:

     e(  1 -  1) =     -3.78172  eV     1   --> A'             
     e(  2 -  2) =      0.62150  eV     1   --> A'             
     e(  3 -  3) =      3.05232  eV     1   --> A'             
     e(  4 -  4) =      3.80571  eV     1   --> A''            
     e(  5 -  5) =      7.43854  eV     1   --> A'             
     e(  6 -  6) =      9.25421  eV     1   --> A'             
     e(  7 -  7) =     11.90360  eV     1   --> A'             
     e(  8 -  8) =     12.22329  eV     1   --> A''            

 **************************************************************************

 **************************************************************************

                    xk=(   0.63333,   0.15833,   0.15833  )

     Band symmetry, C_s (m)     point group:

     e(  1 -  1) =     -3.97534  eV     1   --> A'             
     e(  2 -  2) =      0.88487  eV     1   --> A'             
     e(  3 -  3) =      3.24522  eV     1   --> A'             
     e(  4 -  4) =      3.87527  eV     1   --> A''            
     e(  5 -  5) =      7.49979  eV     1   --> A'             
     e(  6 -  6) =      9.28289  eV     1   --> A'             
     e(  7 -  7) =     11.69767  eV     1   --> A'             
     e(  8 -  8) =     12.06582  eV     1   --> A''            

 **************************************************************************

 **************************************************************************

                    xk=(   0.60000,   0.15000,   0.15000  )

     Band symmetry, C_s (m)     point group:

     e(  1 -  1) =     -4.16186  eV     1   --> A'             
     e(  2 -  2) =      1.15579  eV     1   --> A'             
     e(  3 -  3) =      3.44161  eV     1   --> A'             
     e(  4 -  4) =      3.95398  eV     1   --> A''            
     e(  5 -  5) =      7.56103  eV     1   --> A'             
     e(  6 -  6) =      9.33881  eV     1   --> A'             
     e(  7 -  7) =     11.49498  eV     1   --> A'             
     e(  8 -  8) =     11.90424  eV     1   --> A''            

 **************************************************************************

 **************************************************************************

                    xk=(   0.56667,   0.14167,   0.14167  )

     Band symmetry, C_s (m)     point group:

     e(  1 -  1) =     -4.34057  eV     1   --> A'             
     e(  2 -  2) =      1.43391  eV     1   --> A'             
     e(  3 -  3) =      3.64011  eV     1   --> A'             
     e(  4 -  4) =      4.04170  eV     1   --> A''            
     e(  5 -  5) =      7.62110  eV     1   --> A'             
     e(  6 -  6) =      9.42164  eV     1   --> A'             
     e(  7 -  7) =     11.29659  eV     1   --> A'             
     e(  8 -  8) =     11.73675  eV     1   --> A''            

 **************************************************************************

 **************************************************************************

                    xk=(   0.53333,   0.13333,   0.13333  )

     Band symmetry, C_s (m)     point group:

     e(  1 -  1) =     -4.51090  eV     1   --> A'             
     e(  2 -  2) =      1.71890  eV     1   --> A'             
     e(  3 -  3) =      3.83945  eV     1   --> A'             
     e(  4 -  4) =      4.13823  eV     1   --> A''            
     e(  5 -  5) =      7.67960  eV     1   --> A'             
     e(  6 -  6) =      9.52909  eV     1   --> A'             
     e(  7 -  7) =     11.10436  eV     1   --> A'             
     e(  8 -  8) =     11.56161  eV     1   --> A''            

 **************************************************************************

 **************************************************************************

                    xk=(   0.50000,   0.12500,   0.12500  )

     Band symmetry, C_s (m)     point group:

     e(  1 -  1) =     -4.67241  eV     1   --> A'             
     e(  2 -  2) =      2.01041  eV     1   --> A'             
     e(  3 -  3) =      4.03840  eV     1   --> A'             
     e(  4 -  4) =      4.24332  eV     1   --> A''            
     e(  5 -  5) =      7.73691  eV     1   --> A'             
     e(  6 -  6) =      9.65568  eV     1   --> A'             
     e(  7 -  7) =     10.92190  eV     1   --> A'             
     e(  8 -  8) =     11.37733  eV     1   --> A''            

 **************************************************************************

 **************************************************************************

                    xk=(   0.46667,   0.11667,   0.11667  )

     Band symmetry, C_s (m)     point group:

     e(  1 -  1) =     -4.82469  eV     1   --> A'             
     e(  2 -  2) =      2.30805  eV     1   --> A'             
     e(  3 -  3) =      4.23578  eV     1   --> A'             
     e(  4 -  4) =      4.35667  eV     1   --> A''            
     e(  5 -  5) =      7.79398  eV     1   --> A'             
     e(  6 -  6) =      9.78990  eV     1   --> A'             
     e(  7 -  7) =     10.75737  eV     1   --> A'             
     e(  8 -  8) =     11.18297  eV     1   --> A''            

 **************************************************************************

 **************************************************************************

                    xk=(   0.43333,   0.10833,   0.10833  )

     Band symmetry, C_s (m)     point group:

     e(  1 -  1) =     -4.96746  eV     1   --> A'             
     e(  2 -  2) =      2.61138  eV     1   --> A'             
     e(  3 -  3) =      4.43044  eV     1   --> A'             
     e(  4 -  4) =      4.47787  eV     1   --> A''            
     e(  5 -  5) =      7.85199  eV     1   --> A'             
     e(  6 -  6) =      9.90596  eV     1   --> A'             
     e(  7 -  7) =     10.63127  eV     1   --> A'             
     e(  8 -  8) =     10.97826  eV     1   --> A''            

 **************************************************************************

 **************************************************************************

                    xk=(   0.40000,   0.10000,   0.10000  )

     Band symmetry, C_s (m)     point group:

     e(  1 -  1) =     -5.10044  eV     1   --> A'             
     e(  2 -  2) =      2.91982  eV     1   --> A'             
     e(  3 -  3) =      4.60643  eV     1   --> A''            
     e(  4 -  4) =      4.62123  eV     1   --> A'             
     e(  5 -  5) =      7.91214  eV     1   --> A'             
     e(  6 -  6) =      9.95271  eV     1   --> A'             
     e(  7 -  7) =     10.58654  eV     1   --> A'             
     e(  8 -  8) =     10.76379  eV     1   --> A''            

 **************************************************************************

 **************************************************************************

                    xk=(   0.36667,   0.09167,   0.09167  )

     Band symmetry, C_s (m)     point group:

     e(  1 -  1) =     -5.22343  eV     1   --> A'             
     e(  2 -  2) =      3.23265  eV     1   --> A'             
     e(  3 -  3) =      4.74170  eV     1   --> A''            
     e(  4 -  4) =      4.80698  eV     1   --> A'             
     e(  5 -  5) =      7.97532  eV     1   --> A'             
     e(  6 -  6) =      9.89658  eV     1   --> A'             
     e(  7 -  7) =     10.54100  eV     1   --> A''            
     e(  8 -  8) =     10.64322  eV     1   --> A'             

 **************************************************************************

 **************************************************************************

                    xk=(   0.33333,   0.08333,   0.08333  )

     Band symmetry, C_s (m)     point group:

     e(  1 -  1) =     -5.33622  eV     1   --> A'             
     e(  2 -  2) =      3.54893  eV     1   --> A'             
     e(  3 -  3) =      4.88286  eV     1   --> A''            
     e(  4 -  4) =      4.98647  eV     1   --> A'             
     e(  5 -  5) =      8.04206  eV     1   --> A'             
     e(  6 -  6) =      9.77613  eV     1   --> A'             
     e(  7 -  7) =     10.31206  eV     1   --> A''            
     e(  8 -  8) =     10.73935  eV     1   --> A'             

 **************************************************************************

 **************************************************************************

                    xk=(   0.30000,   0.07500,   0.07500  )

     Band symmetry, C_s (m)     point group:

     e(  1 -  1) =     -5.43868  eV     1   --> A'             
     e(  2 -  2) =      3.86743  eV     1   --> A'             
     e(  3 -  3) =      5.02881  eV     1   --> A''            
     e(  4 -  4) =      5.15839  eV     1   --> A'             
     e(  5 -  5) =      8.11234  eV     1   --> A'             
     e(  6 -  6) =      9.63218  eV     1   --> A'             
     e(  7 -  7) =     10.07979  eV     1   --> A''            
     e(  8 -  8) =     10.79639  eV     1   --> A'             

 **************************************************************************

 **************************************************************************

                    xk=(   0.26667,   0.06667,   0.06667  )

     Band symmetry, C_s (m)     point group:

     e(  1 -  1) =     -5.53066  eV     1   --> A'             
     e(  2 -  2) =      4.18644  eV     1   --> A'             
     e(  3 -  3) =      5.17811  eV     1   --> A''            
     e(  4 -  4) =      5.32127  eV     1   --> A'             
     e(  5 -  5) =      8.18561  eV     1   --> A'             
     e(  6 -  6) =      9.48252  eV     1   --> A'             
     e(  7 -  7) =      9.84752  eV     1   --> A''            
     e(  8 -  8) =     10.75594  eV     1   --> A'             

 **************************************************************************

 **************************************************************************

                    xk=(   0.23333,   0.05833,   0.05833  )

     Band symmetry, C_s (m)     point group:

     e(  1 -  1) =     -5.61206  eV     1   --> A'             
     e(  2 -  2) =      4.50360  eV     1   --> A'             
     e(  3 -  3) =      5.32882  eV     1   --> A''            
     e(  4 -  4) =      5.47348  eV     1   --> A'             
     e(  5 -  5) =      8.26063  eV     1   --> A'             
     e(  6 -  6) =      9.33453  eV     1   --> A'             
     e(  7 -  7) =      9.61904  eV     1   --> A''            
     e(  8 -  8) =     10.60528  eV     1   --> A'             

 **************************************************************************

 **************************************************************************

                    xk=(   0.20000,   0.05000,   0.05000  )

     Band symmetry, C_s (m)     point group:

     e(  1 -  1) =     -5.68278  eV     1   --> A'             
     e(  2 -  2) =      4.81548  eV     1   --> A'             
     e(  3 -  3) =      5.47829  eV     1   --> A''            
     e(  4 -  4) =      5.61315  eV     1   --> A'             
     e(  5 -  5) =      8.33550  eV     1   --> A'             
     e(  6 -  6) =      9.19187  eV     1   --> A'             
     e(  7 -  7) =      9.39873  eV     1   --> A''            
     e(  8 -  8) =     10.37970  eV     1   --> A'             

 **************************************************************************

 **************************************************************************

                    xk=(   0.16667,   0.04167,   0.04167  )

     Band symmetry, C_s (m)     point group:

     e(  1 -  1) =     -5.74274  eV     1   --> A'             
     e(  2 -  2) =      5.11710  eV     1   --> A'             
     e(  3 -  3) =      5.62291  eV     1   --> A''            
     e(  4 -  4) =      5.73812  eV     1   --> A'             
     e(  5 -  5) =      8.40763  eV     1   --> A'             
     e(  6 -  6) =      9.05655  eV     1   --> A'             
     e(  7 -  7) =      9.19169  eV     1   --> A''            
     e(  8 -  8) =     10.12307  eV     1   --> A'             

 **************************************************************************

 **************************************************************************

                    xk=(   0.13333,   0.03333,   0.03333  )

     Band symmetry, C_s (m)     point group:

     e(  1 -  1) =     -5.79188  eV     1   --> A'             
     e(  2 -  2) =      5.40088  eV     1   --> A'             
     e(  3 -  3) =      5.75776  eV     1   --> A''            
     e(  4 -  4) =      5.84595  eV     1   --> A'             
     e(  5 -  5) =      8.47384  eV     1   --> A'             
     e(  6 -  6) =      8.92985  eV     1   --> A'             
     e(  7 -  7) =      9.00411  eV     1   --> A''            
     e(  8 -  8) =      9.86892  eV     1   --> A'             

 **************************************************************************

 **************************************************************************

                    xk=(   0.10000,   0.02500,   0.02500  )

     Band symmetry, C_s (m)     point group:

     e(  1 -  1) =     -5.83016  eV     1   --> A'             
     e(  2 -  2) =      5.65533  eV     1   --> A'             
     e(  3 -  3) =      5.87636  eV     1   --> A''            
     e(  4 -  4) =      5.93394  eV     1   --> A'             
     e(  5 -  5) =      8.53054  eV     1   --> A'             
     e(  6 -  6) =      8.81335  eV     1   --> A'             
     e(  7 -  7) =      8.84349  eV     1   --> A''            
     e(  8 -  8) =      9.64308  eV     1   --> A'             

 **************************************************************************

 **************************************************************************

                    xk=(   0.06667,   0.01667,   0.01667  )

     Band symmetry, C_s (m)     point group:

     e(  1 -  1) =     -5.85753  eV     1   --> A'             
     e(  2 -  2) =      5.86361  eV     1   --> A'             
     e(  3 -  3) =      5.97068  eV     1   --> A''            
     e(  4 -  4) =      5.99938  eV     1   --> A'             
     e(  5 -  5) =      8.57416  eV     1   --> A'             
     e(  6 -  6) =      8.71208  eV     1   --> A'             
     e(  7 -  7) =      8.71862  eV     1   --> A''            
     e(  8 -  8) =      9.46741  eV     1   --> A'             

 **************************************************************************

 **************************************************************************

                    xk=(   0.03333,   0.00833,   0.00833  )

     Band symmetry, C_s (m)     point group:

     e(  1 -  1) =     -5.87396  eV     1   --> A'             
     e(  2 -  2) =      6.00361  eV     1   --> A'             
     e(  3 -  3) =      6.03209  eV     1   --> A''            
     e(  4 -  4) =      6.03981  eV     1   --> A'             
     e(  5 -  5) =      8.60166  eV     1   --> A'             
     e(  6 -  7) =      8.63862  eV     2   --> A'             
     e(  6 -  7) =      8.63862  eV     2   --> A''            
     e(  8 -  8) =      9.35742  eV     1   --> A'             

 **************************************************************************

 **************************************************************************

                    xk=(   0.00000,   0.00000,   0.00000  )

     point group O_h (m-3m) 
     there are 10 classes
     the character table:

       E     8C3   3C2   6C4   6C2'  i     8S6   3s_h  6S4   6s_d 
A_1g   1.00  1.00  1.00  1.00  1.00  1.00  1.00  1.00  1.00  1.00
A_2g   1.00  1.00  1.00 -1.00 -1.00  1.00  1.00  1.00 -1.00 -1.00
E_g    2.00 -1.00  2.00  0.00  0.00  2.00 -1.00  2.00  0.00  0.00
T_1g   3.00  0.00 -1.00  1.00 -1.00  3.00  0.00 -1.00  1.00 -1.00
T_2g   3.00  0.00 -1.00 -1.00  1.00  3.00  0.00 -1.00 -1.00  1.00
A_1u   1.00  1.00  1.00  1.00  1.00 -1.00 -1.00 -1.00 -1.00 -1.00
A_2u   1.00  1.00  1.00 -1.00 -1.00 -1.00 -1.00 -1.00  1.00  1.00
E_u    2.00 -1.00  2.00  0.00  0.00 -2.00  1.00 -2.00  0.00  0.00
T_1u   3.00  0.00 -1.00  1.00 -1.00 -3.00  0.00  1.00 -1.00  1.00
T_2u   3.00  0.00 -1.00 -1.00  1.00 -3.00  0.00  1.00  1.00 -1.00

     the symmetry operations in each class and the name of the first element:

     E        1
                                                                 
     8C3     17   19   20   18   24   21   22   23
                                                                 
     3C2      2    4    3
                                                                 
     6C4      7    8   15   16   12   11
                                                                 
     6C2'     5    6   14   13   10    9
                                                                 
     i       25
                                                                 
     8S6     41   43   44   42   48   45   46   47
                                                                 
     3s_h    26   28   27
                                                                 
     6S4     31   32   39   40   36   35
                                                                 
     6s_d    29   30   38   37   34   33
                                                                 

     Band symmetry, O_h (m-3m)  point group:

     e(  1 -  1) =     -5.87944  eV     1   --> A_1g G_1   G_1+
     e(  2 -  4) =      6.05350  eV     3   --> T_2g G_25' G_5+
     e(  5 -  7) =      8.61104  eV     3   --> T_1u G_15  G_4-
     e(  8 -  8) =      9.32029  eV     1   --> A_2u G_2'  G_2-

 **************************************************************************

     BANDS        :     13.76s CPU     14.07s WALL


   This run was terminated on:   1:33:49  31Aug2023            

=------------------------------------------------------------------------------=
   JOB DONE.
=------------------------------------------------------------------------------=
