
     Program PWSCF v.6.4.1 starts on 30Aug2023 at 20:42:36 

     This program is part of the open-source Quantum ESPRESSO suite
     for quantum simulation of materials; please cite
         "P. Giannozzi et al., J. Phys.:Condens. Matter 21 395502 (2009);
         "P. Giannozzi et al., J. Phys.:Condens. Matter 29 465901 (2017);
          URL http://www.quantum-espresso.org", 
     in publications or presentations arising from this work. More details at
     http://www.quantum-espresso.org/quote

     Parallel version (MPI), running on     1 processors

     MPI processes distributed on     1 nodes
     Waiting for input...
     Reading input from standard input

     Current dimensions of program PWSCF are:
     Max number of different atomic species (ntypx) = 10
     Max number of k-points (npk) =  40000
     Max angular momentum in pseudopotentials (lmaxx) =  3

     Atomic positions and unit cell read from directory:
     ./tmp/silicon.save/


     Subspace diagonalization in iterative solution of the eigenvalue problem:
     a serial algorithm will be used


     G-vector sticks info
     --------------------
     sticks:   dense  smooth     PW     G-vecs:    dense   smooth      PW
     Sum         721     721    235                12627    12627    2277



     bravais-lattice index     =            2
     lattice parameter (alat)  =      10.2015  a.u.
     unit-cell volume          =     265.4191 (a.u.)^3
     number of atoms/cell      =            2
     number of atomic types    =            1
     number of electrons       =         8.00
     number of Kohn-Sham states=            8
     kinetic-energy cutoff     =      50.0000  Ry
     charge density cutoff     =     200.0000  Ry
     Exchange-correlation      = SLA PZ NOGX NOGC ( 1  1  0  0 0 0)

     celldm(1)=  10.201500  celldm(2)=   0.000000  celldm(3)=   0.000000
     celldm(4)=   0.000000  celldm(5)=   0.000000  celldm(6)=   0.000000

     crystal axes: (cart. coord. in units of alat)
               a(1) = (  -0.500000   0.000000   0.500000 )  
               a(2) = (   0.000000   0.500000   0.500000 )  
               a(3) = (  -0.500000   0.500000   0.000000 )  

     reciprocal axes: (cart. coord. in units 2 pi/alat)
               b(1) = ( -1.000000 -1.000000  1.000000 )  
               b(2) = (  1.000000  1.000000  1.000000 )  
               b(3) = ( -1.000000  1.000000 -1.000000 )  


     PseudoPot. # 1 for Si read from file:
     /home/meyn/q-e-qe-7.1/pseudo/Si.pz-vbc.UPF
     MD5 check sum: 9f25e6ff280f3123e9b3a84715b2e9c9
     Pseudo is Norm-conserving, Zval =  4.0
     Generated by new atomic code, or converted to UPF format
     Using radial grid of  431 points,  2 beta functions with: 
                l(1) =   0
                l(2) =   1

     atomic species   valence    mass     pseudopotential
        Si             4.00    28.08600     Si( 1.00)

     No symmetry found


                                    s                        frac. trans.

      isym =  1     identity                                     

 cryst.   s( 1) = (     1          0          0      )
                  (     0          1          0      )
                  (     0          0          1      )

 cart.    s( 1) = (  1.0000000  0.0000000  0.0000000 )
                  (  0.0000000  1.0000000  0.0000000 )
                  (  0.0000000  0.0000000  1.0000000 )


     point group C_1 (1)    
     there are  1 classes
     the character table:

       E    
A      1.00

     the symmetry operations in each class and the name of the first element:

     E        1
          identity                                               

   Cartesian axes

     site n.     atom                  positions (alat units)
         1           Si  tau(   1) = (   0.0000000   0.0000000   0.0000000  )
         2           Si  tau(   2) = (   0.2500375   0.2500375   0.2500375  )

   Crystallographic axes

     site n.     atom                  positions (cryst. coord.)
         1           Si  tau(   1) = (  0.0000000  0.0000000  0.0000000  )
         2           Si  tau(   2) = ( -0.2500375  0.7501124 -0.2500375  )

     number of k points=   868 (tetrahedron method)
                       cart. coord. in units 2pi/alat
        k(    1) = (   0.0000000   0.0000000   0.0000000), wk =   0.0011574
        k(    2) = (  -0.0833333   0.0833333  -0.0833333), wk =   0.0023148
        k(    3) = (  -0.1666667   0.1666667  -0.1666667), wk =   0.0023148
        k(    4) = (  -0.2500000   0.2500000  -0.2500000), wk =   0.0023148
        k(    5) = (  -0.3333333   0.3333333  -0.3333333), wk =   0.0023148
        k(    6) = (  -0.4166667   0.4166667  -0.4166667), wk =   0.0023148
        k(    7) = (   0.5000000  -0.5000000   0.5000000), wk =   0.0011574
        k(    8) = (   0.0833333   0.0833333   0.0833333), wk =   0.0023148
        k(    9) = (   0.0000000   0.1666667   0.0000000), wk =   0.0023148
        k(   10) = (  -0.0833333   0.2500000  -0.0833333), wk =   0.0023148
        k(   11) = (  -0.1666667   0.3333333  -0.1666667), wk =   0.0023148
        k(   12) = (  -0.2500000   0.4166667  -0.2500000), wk =   0.0023148
        k(   13) = (  -0.3333333   0.5000000  -0.3333333), wk =   0.0023148
        k(   14) = (   0.5833333  -0.4166667   0.5833333), wk =   0.0023148
        k(   15) = (   0.5000000  -0.3333333   0.5000000), wk =   0.0023148
        k(   16) = (   0.4166667  -0.2500000   0.4166667), wk =   0.0023148
        k(   17) = (   0.3333333  -0.1666667   0.3333333), wk =   0.0023148
        k(   18) = (   0.2500000  -0.0833333   0.2500000), wk =   0.0023148
        k(   19) = (   0.1666667  -0.0000000   0.1666667), wk =   0.0023148
        k(   20) = (   0.1666667   0.1666667   0.1666667), wk =   0.0023148
        k(   21) = (   0.0833333   0.2500000   0.0833333), wk =   0.0023148
        k(   22) = (   0.0000000   0.3333333   0.0000000), wk =   0.0023148
        k(   23) = (  -0.0833333   0.4166667  -0.0833333), wk =   0.0023148
        k(   24) = (  -0.1666667   0.5000000  -0.1666667), wk =   0.0023148
        k(   25) = (  -0.2500000   0.5833333  -0.2500000), wk =   0.0023148
        k(   26) = (   0.6666667  -0.3333333   0.6666667), wk =   0.0023148
        k(   27) = (   0.5833333  -0.2500000   0.5833333), wk =   0.0023148
        k(   28) = (   0.5000000  -0.1666667   0.5000000), wk =   0.0023148
        k(   29) = (   0.4166667  -0.0833333   0.4166667), wk =   0.0023148
        k(   30) = (   0.3333333   0.0000000   0.3333333), wk =   0.0023148
        k(   31) = (   0.2500000   0.0833333   0.2500000), wk =   0.0023148
        k(   32) = (   0.2500000   0.2500000   0.2500000), wk =   0.0023148
        k(   33) = (   0.1666667   0.3333333   0.1666667), wk =   0.0023148
        k(   34) = (   0.0833333   0.4166667   0.0833333), wk =   0.0023148
        k(   35) = (   0.0000000   0.5000000   0.0000000), wk =   0.0023148
        k(   36) = (  -0.0833333   0.5833333  -0.0833333), wk =   0.0023148
        k(   37) = (  -0.1666667   0.6666667  -0.1666667), wk =   0.0023148
        k(   38) = (   0.7500000  -0.2500000   0.7500000), wk =   0.0023148
        k(   39) = (   0.6666667  -0.1666667   0.6666667), wk =   0.0023148
        k(   40) = (   0.5833333  -0.0833333   0.5833333), wk =   0.0023148
        k(   41) = (   0.5000000   0.0000000   0.5000000), wk =   0.0023148
        k(   42) = (   0.4166667   0.0833333   0.4166667), wk =   0.0023148
        k(   43) = (   0.3333333   0.1666667   0.3333333), wk =   0.0023148
        k(   44) = (   0.3333333   0.3333333   0.3333333), wk =   0.0023148
        k(   45) = (   0.2500000   0.4166667   0.2500000), wk =   0.0023148
        k(   46) = (   0.1666667   0.5000000   0.1666667), wk =   0.0023148
        k(   47) = (   0.0833333   0.5833333   0.0833333), wk =   0.0023148
        k(   48) = (   0.0000000   0.6666667   0.0000000), wk =   0.0023148
        k(   49) = (  -0.0833333   0.7500000  -0.0833333), wk =   0.0023148
        k(   50) = (   0.8333333  -0.1666667   0.8333333), wk =   0.0023148
        k(   51) = (   0.7500000  -0.0833333   0.7500000), wk =   0.0023148
        k(   52) = (   0.6666667   0.0000000   0.6666667), wk =   0.0023148
        k(   53) = (   0.5833333   0.0833333   0.5833333), wk =   0.0023148
        k(   54) = (   0.5000000   0.1666667   0.5000000), wk =   0.0023148
        k(   55) = (   0.4166667   0.2500000   0.4166667), wk =   0.0023148
        k(   56) = (   0.4166667   0.4166667   0.4166667), wk =   0.0023148
        k(   57) = (   0.3333333   0.5000000   0.3333333), wk =   0.0023148
        k(   58) = (   0.2500000   0.5833333   0.2500000), wk =   0.0023148
        k(   59) = (   0.1666667   0.6666667   0.1666667), wk =   0.0023148
        k(   60) = (   0.0833333   0.7500000   0.0833333), wk =   0.0023148
        k(   61) = (   0.0000000   0.8333333   0.0000000), wk =   0.0023148
        k(   62) = (   0.9166667  -0.0833333   0.9166667), wk =   0.0023148
        k(   63) = (   0.8333333   0.0000000   0.8333333), wk =   0.0023148
        k(   64) = (   0.7500000   0.0833333   0.7500000), wk =   0.0023148
        k(   65) = (   0.6666667   0.1666667   0.6666667), wk =   0.0023148
        k(   66) = (   0.5833333   0.2500000   0.5833333), wk =   0.0023148
        k(   67) = (   0.5000000   0.3333333   0.5000000), wk =   0.0023148
        k(   68) = (  -0.5000000  -0.5000000  -0.5000000), wk =   0.0011574
        k(   69) = (  -0.5833333  -0.4166667  -0.5833333), wk =   0.0023148
        k(   70) = (  -0.6666667  -0.3333333  -0.6666667), wk =   0.0023148
        k(   71) = (  -0.7500000  -0.2500000  -0.7500000), wk =   0.0023148
        k(   72) = (  -0.8333333  -0.1666667  -0.8333333), wk =   0.0023148
        k(   73) = (  -0.9166667  -0.0833333  -0.9166667), wk =   0.0023148
        k(   74) = (   0.0000000  -1.0000000   0.0000000), wk =   0.0011574
        k(   75) = (  -0.0833333  -0.0833333   0.0833333), wk =   0.0023148
        k(   76) = (  -0.1666667   0.0000000   0.0000000), wk =   0.0023148
        k(   77) = (  -0.2500000   0.0833333  -0.0833333), wk =   0.0023148
        k(   78) = (  -0.3333333   0.1666667  -0.1666667), wk =   0.0023148
        k(   79) = (  -0.4166667   0.2500000  -0.2500000), wk =   0.0023148
        k(   80) = (  -0.5000000   0.3333333  -0.3333333), wk =   0.0023148
        k(   81) = (   0.4166667  -0.5833333   0.5833333), wk =   0.0023148
        k(   82) = (   0.3333333  -0.5000000   0.5000000), wk =   0.0023148
        k(   83) = (   0.2500000  -0.4166667   0.4166667), wk =   0.0023148
        k(   84) = (   0.1666667  -0.3333333   0.3333333), wk =   0.0023148
        k(   85) = (   0.0833333  -0.2500000   0.2500000), wk =   0.0023148
        k(   86) = (   0.0000000  -0.1666667   0.1666667), wk =   0.0023148
        k(   87) = (   0.0000000   0.0000000   0.1666667), wk =   0.0023148
        k(   88) = (  -0.0833333   0.0833333   0.0833333), wk =   0.0023148
        k(   89) = (  -0.1666667   0.1666667   0.0000000), wk =   0.0023148
        k(   90) = (  -0.2500000   0.2500000  -0.0833333), wk =   0.0023148
        k(   91) = (  -0.3333333   0.3333333  -0.1666667), wk =   0.0023148
        k(   92) = (  -0.4166667   0.4166667  -0.2500000), wk =   0.0023148
        k(   93) = (   0.5000000  -0.5000000   0.6666667), wk =   0.0023148
        k(   94) = (   0.4166667  -0.4166667   0.5833333), wk =   0.0023148
        k(   95) = (   0.3333333  -0.3333333   0.5000000), wk =   0.0023148
        k(   96) = (   0.2500000  -0.2500000   0.4166667), wk =   0.0023148
        k(   97) = (   0.1666667  -0.1666667   0.3333333), wk =   0.0023148
        k(   98) = (   0.0833333  -0.0833333   0.2500000), wk =   0.0023148
        k(   99) = (   0.0833333   0.0833333   0.2500000), wk =   0.0023148
        k(  100) = (   0.0000000   0.1666667   0.1666667), wk =   0.0023148
        k(  101) = (  -0.0833333   0.2500000   0.0833333), wk =   0.0023148
        k(  102) = (  -0.1666667   0.3333333   0.0000000), wk =   0.0023148
        k(  103) = (  -0.2500000   0.4166667  -0.0833333), wk =   0.0023148
        k(  104) = (  -0.3333333   0.5000000  -0.1666667), wk =   0.0023148
        k(  105) = (   0.5833333  -0.4166667   0.7500000), wk =   0.0023148
        k(  106) = (   0.5000000  -0.3333333   0.6666667), wk =   0.0023148
        k(  107) = (   0.4166667  -0.2500000   0.5833333), wk =   0.0023148
        k(  108) = (   0.3333333  -0.1666667   0.5000000), wk =   0.0023148
        k(  109) = (   0.2500000  -0.0833333   0.4166667), wk =   0.0023148
        k(  110) = (   0.1666667  -0.0000000   0.3333333), wk =   0.0023148
        k(  111) = (   0.1666667   0.1666667   0.3333333), wk =   0.0023148
        k(  112) = (   0.0833333   0.2500000   0.2500000), wk =   0.0023148
        k(  113) = (   0.0000000   0.3333333   0.1666667), wk =   0.0023148
        k(  114) = (  -0.0833333   0.4166667   0.0833333), wk =   0.0023148
        k(  115) = (  -0.1666667   0.5000000   0.0000000), wk =   0.0023148
        k(  116) = (  -0.2500000   0.5833333  -0.0833333), wk =   0.0023148
        k(  117) = (   0.6666667  -0.3333333   0.8333333), wk =   0.0023148
        k(  118) = (   0.5833333  -0.2500000   0.7500000), wk =   0.0023148
        k(  119) = (   0.5000000  -0.1666667   0.6666667), wk =   0.0023148
        k(  120) = (   0.4166667  -0.0833333   0.5833333), wk =   0.0023148
        k(  121) = (   0.3333333   0.0000000   0.5000000), wk =   0.0023148
        k(  122) = (   0.2500000   0.0833333   0.4166667), wk =   0.0023148
        k(  123) = (   0.2500000   0.2500000   0.4166667), wk =   0.0023148
        k(  124) = (   0.1666667   0.3333333   0.3333333), wk =   0.0023148
        k(  125) = (   0.0833333   0.4166667   0.2500000), wk =   0.0023148
        k(  126) = (   0.0000000   0.5000000   0.1666667), wk =   0.0023148
        k(  127) = (  -0.0833333   0.5833333   0.0833333), wk =   0.0023148
        k(  128) = (  -0.1666667   0.6666667  -0.0000000), wk =   0.0023148
        k(  129) = (   0.7500000  -0.2500000   0.9166667), wk =   0.0023148
        k(  130) = (   0.6666667  -0.1666667   0.8333333), wk =   0.0023148
        k(  131) = (   0.5833333  -0.0833333   0.7500000), wk =   0.0023148
        k(  132) = (   0.5000000   0.0000000   0.6666667), wk =   0.0023148
        k(  133) = (   0.4166667   0.0833333   0.5833333), wk =   0.0023148
        k(  134) = (   0.3333333   0.1666667   0.5000000), wk =   0.0023148
        k(  135) = (   0.3333333   0.3333333   0.5000000), wk =   0.0023148
        k(  136) = (   0.2500000   0.4166667   0.4166667), wk =   0.0023148
        k(  137) = (   0.1666667   0.5000000   0.3333333), wk =   0.0023148
        k(  138) = (   0.0833333   0.5833333   0.2500000), wk =   0.0023148
        k(  139) = (   0.0000000   0.6666667   0.1666667), wk =   0.0023148
        k(  140) = (  -0.0833333   0.7500000   0.0833333), wk =   0.0023148
        k(  141) = (   0.8333333  -0.1666667   1.0000000), wk =   0.0023148
        k(  142) = (   0.7500000  -0.0833333   0.9166667), wk =   0.0023148
        k(  143) = (   0.6666667   0.0000000   0.8333333), wk =   0.0023148
        k(  144) = (   0.5833333   0.0833333   0.7500000), wk =   0.0023148
        k(  145) = (   0.5000000   0.1666667   0.6666667), wk =   0.0023148
        k(  146) = (   0.4166667   0.2500000   0.5833333), wk =   0.0023148
        k(  147) = (  -0.5833333  -0.5833333  -0.4166667), wk =   0.0023148
        k(  148) = (  -0.6666667  -0.5000000  -0.5000000), wk =   0.0023148
        k(  149) = (  -0.7500000  -0.4166667  -0.5833333), wk =   0.0023148
        k(  150) = (  -0.8333333  -0.3333333  -0.6666667), wk =   0.0023148
        k(  151) = (  -0.9166667  -0.2500000  -0.7500000), wk =   0.0023148
        k(  152) = (  -1.0000000  -0.1666667  -0.8333333), wk =   0.0023148
        k(  153) = (  -0.0833333  -1.0833333   0.0833333), wk =   0.0023148
        k(  154) = (  -0.1666667  -1.0000000   0.0000000), wk =   0.0023148
        k(  155) = (  -0.2500000  -0.9166667  -0.0833333), wk =   0.0023148
        k(  156) = (  -0.3333333  -0.8333333  -0.1666667), wk =   0.0023148
        k(  157) = (  -0.4166667  -0.7500000  -0.2500000), wk =   0.0023148
        k(  158) = (  -0.5000000  -0.6666667  -0.3333333), wk =   0.0023148
        k(  159) = (  -0.5000000  -0.5000000  -0.3333333), wk =   0.0023148
        k(  160) = (  -0.5833333  -0.4166667  -0.4166667), wk =   0.0023148
        k(  161) = (  -0.6666667  -0.3333333  -0.5000000), wk =   0.0023148
        k(  162) = (  -0.7500000  -0.2500000  -0.5833333), wk =   0.0023148
        k(  163) = (  -0.8333333  -0.1666667  -0.6666667), wk =   0.0023148
        k(  164) = (  -0.9166667  -0.0833333  -0.7500000), wk =   0.0023148
        k(  165) = (   0.0000000  -1.0000000   0.1666667), wk =   0.0023148
        k(  166) = (  -0.0833333  -0.9166667   0.0833333), wk =   0.0023148
        k(  167) = (  -0.1666667  -0.8333333   0.0000000), wk =   0.0023148
        k(  168) = (  -0.2500000  -0.7500000  -0.0833333), wk =   0.0023148
        k(  169) = (  -0.3333333  -0.6666667  -0.1666667), wk =   0.0023148
        k(  170) = (  -0.4166667  -0.5833333  -0.2500000), wk =   0.0023148
        k(  171) = (  -0.4166667  -0.4166667  -0.2500000), wk =   0.0023148
        k(  172) = (  -0.5000000  -0.3333333  -0.3333333), wk =   0.0023148
        k(  173) = (  -0.5833333  -0.2500000  -0.4166667), wk =   0.0023148
        k(  174) = (  -0.6666667  -0.1666667  -0.5000000), wk =   0.0023148
        k(  175) = (  -0.7500000  -0.0833333  -0.5833333), wk =   0.0023148
        k(  176) = (  -0.8333333   0.0000000  -0.6666667), wk =   0.0023148
        k(  177) = (   0.0833333  -0.9166667   0.2500000), wk =   0.0023148
        k(  178) = (  -0.0000000  -0.8333333   0.1666667), wk =   0.0023148
        k(  179) = (  -0.0833333  -0.7500000   0.0833333), wk =   0.0023148
        k(  180) = (  -0.1666667  -0.6666667  -0.0000000), wk =   0.0023148
        k(  181) = (  -0.2500000  -0.5833333  -0.0833333), wk =   0.0023148
        k(  182) = (  -0.3333333  -0.5000000  -0.1666667), wk =   0.0023148
        k(  183) = (  -0.3333333  -0.3333333  -0.1666667), wk =   0.0023148
        k(  184) = (  -0.4166667  -0.2500000  -0.2500000), wk =   0.0023148
        k(  185) = (  -0.5000000  -0.1666667  -0.3333333), wk =   0.0023148
        k(  186) = (  -0.5833333  -0.0833333  -0.4166667), wk =   0.0023148
        k(  187) = (  -0.6666667   0.0000000  -0.5000000), wk =   0.0023148
        k(  188) = (  -0.7500000   0.0833333  -0.5833333), wk =   0.0023148
        k(  189) = (   0.1666667  -0.8333333   0.3333333), wk =   0.0023148
        k(  190) = (   0.0833333  -0.7500000   0.2500000), wk =   0.0023148
        k(  191) = (   0.0000000  -0.6666667   0.1666667), wk =   0.0023148
        k(  192) = (  -0.0833333  -0.5833333   0.0833333), wk =   0.0023148
        k(  193) = (  -0.1666667  -0.5000000  -0.0000000), wk =   0.0023148
        k(  194) = (  -0.2500000  -0.4166667  -0.0833333), wk =   0.0023148
        k(  195) = (  -0.2500000  -0.2500000  -0.0833333), wk =   0.0023148
        k(  196) = (  -0.3333333  -0.1666667  -0.1666667), wk =   0.0023148
        k(  197) = (  -0.4166667  -0.0833333  -0.2500000), wk =   0.0023148
        k(  198) = (  -0.5000000   0.0000000  -0.3333333), wk =   0.0023148
        k(  199) = (  -0.5833333   0.0833333  -0.4166667), wk =   0.0023148
        k(  200) = (  -0.6666667   0.1666667  -0.5000000), wk =   0.0023148
        k(  201) = (   0.2500000  -0.7500000   0.4166667), wk =   0.0023148
        k(  202) = (   0.1666667  -0.6666667   0.3333333), wk =   0.0023148
        k(  203) = (   0.0833333  -0.5833333   0.2500000), wk =   0.0023148
        k(  204) = (   0.0000000  -0.5000000   0.1666667), wk =   0.0023148
        k(  205) = (  -0.0833333  -0.4166667   0.0833333), wk =   0.0023148
        k(  206) = (  -0.1666667  -0.3333333   0.0000000), wk =   0.0023148
        k(  207) = (  -0.1666667  -0.1666667  -0.0000000), wk =   0.0023148
        k(  208) = (  -0.2500000  -0.0833333  -0.0833333), wk =   0.0023148
        k(  209) = (  -0.3333333   0.0000000  -0.1666667), wk =   0.0023148
        k(  210) = (  -0.4166667   0.0833333  -0.2500000), wk =   0.0023148
        k(  211) = (  -0.5000000   0.1666667  -0.3333333), wk =   0.0023148
        k(  212) = (  -0.5833333   0.2500000  -0.4166667), wk =   0.0023148
        k(  213) = (   0.3333333  -0.6666667   0.5000000), wk =   0.0023148
        k(  214) = (   0.2500000  -0.5833333   0.4166667), wk =   0.0023148
        k(  215) = (   0.1666667  -0.5000000   0.3333333), wk =   0.0023148
        k(  216) = (   0.0833333  -0.4166667   0.2500000), wk =   0.0023148
        k(  217) = (  -0.0000000  -0.3333333   0.1666667), wk =   0.0023148
        k(  218) = (  -0.0833333  -0.2500000   0.0833333), wk =   0.0023148
        k(  219) = (  -0.1666667  -0.1666667   0.1666667), wk =   0.0023148
        k(  220) = (  -0.2500000  -0.0833333   0.0833333), wk =   0.0023148
        k(  221) = (  -0.3333333   0.0000000   0.0000000), wk =   0.0023148
        k(  222) = (  -0.4166667   0.0833333  -0.0833333), wk =   0.0023148
        k(  223) = (  -0.5000000   0.1666667  -0.1666667), wk =   0.0023148
        k(  224) = (  -0.5833333   0.2500000  -0.2500000), wk =   0.0023148
        k(  225) = (   0.3333333  -0.6666667   0.6666667), wk =   0.0023148
        k(  226) = (   0.2500000  -0.5833333   0.5833333), wk =   0.0023148
        k(  227) = (   0.1666667  -0.5000000   0.5000000), wk =   0.0023148
        k(  228) = (   0.0833333  -0.4166667   0.4166667), wk =   0.0023148
        k(  229) = (   0.0000000  -0.3333333   0.3333333), wk =   0.0023148
        k(  230) = (  -0.0833333  -0.2500000   0.2500000), wk =   0.0023148
        k(  231) = (  -0.0833333  -0.0833333   0.2500000), wk =   0.0023148
        k(  232) = (  -0.1666667  -0.0000000   0.1666667), wk =   0.0023148
        k(  233) = (  -0.2500000   0.0833333   0.0833333), wk =   0.0023148
        k(  234) = (  -0.3333333   0.1666667   0.0000000), wk =   0.0023148
        k(  235) = (  -0.4166667   0.2500000  -0.0833333), wk =   0.0023148
        k(  236) = (  -0.5000000   0.3333333  -0.1666667), wk =   0.0023148
        k(  237) = (   0.4166667  -0.5833333   0.7500000), wk =   0.0023148
        k(  238) = (   0.3333333  -0.5000000   0.6666667), wk =   0.0023148
        k(  239) = (   0.2500000  -0.4166667   0.5833333), wk =   0.0023148
        k(  240) = (   0.1666667  -0.3333333   0.5000000), wk =   0.0023148
        k(  241) = (   0.0833333  -0.2500000   0.4166667), wk =   0.0023148
        k(  242) = (   0.0000000  -0.1666667   0.3333333), wk =   0.0023148
        k(  243) = (   0.0000000   0.0000000   0.3333333), wk =   0.0023148
        k(  244) = (  -0.0833333   0.0833333   0.2500000), wk =   0.0023148
        k(  245) = (  -0.1666667   0.1666667   0.1666667), wk =   0.0023148
        k(  246) = (  -0.2500000   0.2500000   0.0833333), wk =   0.0023148
        k(  247) = (  -0.3333333   0.3333333   0.0000000), wk =   0.0023148
        k(  248) = (  -0.4166667   0.4166667  -0.0833333), wk =   0.0023148
        k(  249) = (   0.5000000  -0.5000000   0.8333333), wk =   0.0023148
        k(  250) = (   0.4166667  -0.4166667   0.7500000), wk =   0.0023148
        k(  251) = (   0.3333333  -0.3333333   0.6666667), wk =   0.0023148
        k(  252) = (   0.2500000  -0.2500000   0.5833333), wk =   0.0023148
        k(  253) = (   0.1666667  -0.1666667   0.5000000), wk =   0.0023148
        k(  254) = (   0.0833333  -0.0833333   0.4166667), wk =   0.0023148
        k(  255) = (   0.0833333   0.0833333   0.4166667), wk =   0.0023148
        k(  256) = (   0.0000000   0.1666667   0.3333333), wk =   0.0023148
        k(  257) = (  -0.0833333   0.2500000   0.2500000), wk =   0.0023148
        k(  258) = (  -0.1666667   0.3333333   0.1666667), wk =   0.0023148
        k(  259) = (  -0.2500000   0.4166667   0.0833333), wk =   0.0023148
        k(  260) = (  -0.3333333   0.5000000  -0.0000000), wk =   0.0023148
        k(  261) = (   0.5833333  -0.4166667   0.9166667), wk =   0.0023148
        k(  262) = (   0.5000000  -0.3333333   0.8333333), wk =   0.0023148
        k(  263) = (   0.4166667  -0.2500000   0.7500000), wk =   0.0023148
        k(  264) = (   0.3333333  -0.1666667   0.6666667), wk =   0.0023148
        k(  265) = (   0.2500000  -0.0833333   0.5833333), wk =   0.0023148
        k(  266) = (   0.1666667   0.0000000   0.5000000), wk =   0.0023148
        k(  267) = (   0.1666667   0.1666667   0.5000000), wk =   0.0023148
        k(  268) = (   0.0833333   0.2500000   0.4166667), wk =   0.0023148
        k(  269) = (   0.0000000   0.3333333   0.3333333), wk =   0.0023148
        k(  270) = (  -0.0833333   0.4166667   0.2500000), wk =   0.0023148
        k(  271) = (  -0.1666667   0.5000000   0.1666667), wk =   0.0023148
        k(  272) = (  -0.2500000   0.5833333   0.0833333), wk =   0.0023148
        k(  273) = (   0.6666667  -0.3333333   1.0000000), wk =   0.0023148
        k(  274) = (   0.5833333  -0.2500000   0.9166667), wk =   0.0023148
        k(  275) = (   0.5000000  -0.1666667   0.8333333), wk =   0.0023148
        k(  276) = (   0.4166667  -0.0833333   0.7500000), wk =   0.0023148
        k(  277) = (   0.3333333   0.0000000   0.6666667), wk =   0.0023148
        k(  278) = (   0.2500000   0.0833333   0.5833333), wk =   0.0023148
        k(  279) = (   0.2500000   0.2500000   0.5833333), wk =   0.0023148
        k(  280) = (   0.1666667   0.3333333   0.5000000), wk =   0.0023148
        k(  281) = (   0.0833333   0.4166667   0.4166667), wk =   0.0023148
        k(  282) = (   0.0000000   0.5000000   0.3333333), wk =   0.0023148
        k(  283) = (  -0.0833333   0.5833333   0.2500000), wk =   0.0023148
        k(  284) = (  -0.1666667   0.6666667   0.1666667), wk =   0.0023148
        k(  285) = (   0.7500000  -0.2500000   1.0833333), wk =   0.0023148
        k(  286) = (   0.6666667  -0.1666667   1.0000000), wk =   0.0023148
        k(  287) = (   0.5833333  -0.0833333   0.9166667), wk =   0.0023148
        k(  288) = (   0.5000000   0.0000000   0.8333333), wk =   0.0023148
        k(  289) = (   0.4166667   0.0833333   0.7500000), wk =   0.0023148
        k(  290) = (   0.3333333   0.1666667   0.6666667), wk =   0.0023148
        k(  291) = (  -0.6666667  -0.6666667  -0.3333333), wk =   0.0023148
        k(  292) = (  -0.7500000  -0.5833333  -0.4166667), wk =   0.0023148
        k(  293) = (  -0.8333333  -0.5000000  -0.5000000), wk =   0.0023148
        k(  294) = (  -0.9166667  -0.4166667  -0.5833333), wk =   0.0023148
        k(  295) = (  -1.0000000  -0.3333333  -0.6666667), wk =   0.0023148
        k(  296) = (  -1.0833333  -0.2500000  -0.7500000), wk =   0.0023148
        k(  297) = (  -0.1666667  -1.1666667   0.1666667), wk =   0.0023148
        k(  298) = (  -0.2500000  -1.0833333   0.0833333), wk =   0.0023148
        k(  299) = (  -0.3333333  -1.0000000   0.0000000), wk =   0.0023148
        k(  300) = (  -0.4166667  -0.9166667  -0.0833333), wk =   0.0023148
        k(  301) = (  -0.5000000  -0.8333333  -0.1666667), wk =   0.0023148
        k(  302) = (  -0.5833333  -0.7500000  -0.2500000), wk =   0.0023148
        k(  303) = (  -0.5833333  -0.5833333  -0.2500000), wk =   0.0023148
        k(  304) = (  -0.6666667  -0.5000000  -0.3333333), wk =   0.0023148
        k(  305) = (  -0.7500000  -0.4166667  -0.4166667), wk =   0.0023148
        k(  306) = (  -0.8333333  -0.3333333  -0.5000000), wk =   0.0023148
        k(  307) = (  -0.9166667  -0.2500000  -0.5833333), wk =   0.0023148
        k(  308) = (  -1.0000000  -0.1666667  -0.6666667), wk =   0.0023148
        k(  309) = (  -0.0833333  -1.0833333   0.2500000), wk =   0.0023148
        k(  310) = (  -0.1666667  -1.0000000   0.1666667), wk =   0.0023148
        k(  311) = (  -0.2500000  -0.9166667   0.0833333), wk =   0.0023148
        k(  312) = (  -0.3333333  -0.8333333   0.0000000), wk =   0.0023148
        k(  313) = (  -0.4166667  -0.7500000  -0.0833333), wk =   0.0023148
        k(  314) = (  -0.5000000  -0.6666667  -0.1666667), wk =   0.0023148
        k(  315) = (  -0.5000000  -0.5000000  -0.1666667), wk =   0.0023148
        k(  316) = (  -0.5833333  -0.4166667  -0.2500000), wk =   0.0023148
        k(  317) = (  -0.6666667  -0.3333333  -0.3333333), wk =   0.0023148
        k(  318) = (  -0.7500000  -0.2500000  -0.4166667), wk =   0.0023148
        k(  319) = (  -0.8333333  -0.1666667  -0.5000000), wk =   0.0023148
        k(  320) = (  -0.9166667  -0.0833333  -0.5833333), wk =   0.0023148
        k(  321) = (   0.0000000  -1.0000000   0.3333333), wk =   0.0023148
        k(  322) = (  -0.0833333  -0.9166667   0.2500000), wk =   0.0023148
        k(  323) = (  -0.1666667  -0.8333333   0.1666667), wk =   0.0023148
        k(  324) = (  -0.2500000  -0.7500000   0.0833333), wk =   0.0023148
        k(  325) = (  -0.3333333  -0.6666667  -0.0000000), wk =   0.0023148
        k(  326) = (  -0.4166667  -0.5833333  -0.0833333), wk =   0.0023148
        k(  327) = (  -0.4166667  -0.4166667  -0.0833333), wk =   0.0023148
        k(  328) = (  -0.5000000  -0.3333333  -0.1666667), wk =   0.0023148
        k(  329) = (  -0.5833333  -0.2500000  -0.2500000), wk =   0.0023148
        k(  330) = (  -0.6666667  -0.1666667  -0.3333333), wk =   0.0023148
        k(  331) = (  -0.7500000  -0.0833333  -0.4166667), wk =   0.0023148
        k(  332) = (  -0.8333333   0.0000000  -0.5000000), wk =   0.0023148
        k(  333) = (   0.0833333  -0.9166667   0.4166667), wk =   0.0023148
        k(  334) = (   0.0000000  -0.8333333   0.3333333), wk =   0.0023148
        k(  335) = (  -0.0833333  -0.7500000   0.2500000), wk =   0.0023148
        k(  336) = (  -0.1666667  -0.6666667   0.1666667), wk =   0.0023148
        k(  337) = (  -0.2500000  -0.5833333   0.0833333), wk =   0.0023148
        k(  338) = (  -0.3333333  -0.5000000   0.0000000), wk =   0.0023148
        k(  339) = (  -0.3333333  -0.3333333   0.0000000), wk =   0.0023148
        k(  340) = (  -0.4166667  -0.2500000  -0.0833333), wk =   0.0023148
        k(  341) = (  -0.5000000  -0.1666667  -0.1666667), wk =   0.0023148
        k(  342) = (  -0.5833333  -0.0833333  -0.2500000), wk =   0.0023148
        k(  343) = (  -0.6666667   0.0000000  -0.3333333), wk =   0.0023148
        k(  344) = (  -0.7500000   0.0833333  -0.4166667), wk =   0.0023148
        k(  345) = (   0.1666667  -0.8333333   0.5000000), wk =   0.0023148
        k(  346) = (   0.0833333  -0.7500000   0.4166667), wk =   0.0023148
        k(  347) = (   0.0000000  -0.6666667   0.3333333), wk =   0.0023148
        k(  348) = (  -0.0833333  -0.5833333   0.2500000), wk =   0.0023148
        k(  349) = (  -0.1666667  -0.5000000   0.1666667), wk =   0.0023148
        k(  350) = (  -0.2500000  -0.4166667   0.0833333), wk =   0.0023148
        k(  351) = (  -0.2500000  -0.2500000   0.0833333), wk =   0.0023148
        k(  352) = (  -0.3333333  -0.1666667  -0.0000000), wk =   0.0023148
        k(  353) = (  -0.4166667  -0.0833333  -0.0833333), wk =   0.0023148
        k(  354) = (  -0.5000000   0.0000000  -0.1666667), wk =   0.0023148
        k(  355) = (  -0.5833333   0.0833333  -0.2500000), wk =   0.0023148
        k(  356) = (  -0.6666667   0.1666667  -0.3333333), wk =   0.0023148
        k(  357) = (   0.2500000  -0.7500000   0.5833333), wk =   0.0023148
        k(  358) = (   0.1666667  -0.6666667   0.5000000), wk =   0.0023148
        k(  359) = (   0.0833333  -0.5833333   0.4166667), wk =   0.0023148
        k(  360) = (   0.0000000  -0.5000000   0.3333333), wk =   0.0023148
        k(  361) = (  -0.0833333  -0.4166667   0.2500000), wk =   0.0023148
        k(  362) = (  -0.1666667  -0.3333333   0.1666667), wk =   0.0023148
        k(  363) = (  -0.2500000  -0.2500000   0.2500000), wk =   0.0023148
        k(  364) = (  -0.3333333  -0.1666667   0.1666667), wk =   0.0023148
        k(  365) = (  -0.4166667  -0.0833333   0.0833333), wk =   0.0023148
        k(  366) = (  -0.5000000   0.0000000   0.0000000), wk =   0.0023148
        k(  367) = (  -0.5833333   0.0833333  -0.0833333), wk =   0.0023148
        k(  368) = (  -0.6666667   0.1666667  -0.1666667), wk =   0.0023148
        k(  369) = (   0.2500000  -0.7500000   0.7500000), wk =   0.0023148
        k(  370) = (   0.1666667  -0.6666667   0.6666667), wk =   0.0023148
        k(  371) = (   0.0833333  -0.5833333   0.5833333), wk =   0.0023148
        k(  372) = (   0.0000000  -0.5000000   0.5000000), wk =   0.0023148
        k(  373) = (  -0.0833333  -0.4166667   0.4166667), wk =   0.0023148
        k(  374) = (  -0.1666667  -0.3333333   0.3333333), wk =   0.0023148
        k(  375) = (  -0.1666667  -0.1666667   0.3333333), wk =   0.0023148
        k(  376) = (  -0.2500000  -0.0833333   0.2500000), wk =   0.0023148
        k(  377) = (  -0.3333333   0.0000000   0.1666667), wk =   0.0023148
        k(  378) = (  -0.4166667   0.0833333   0.0833333), wk =   0.0023148
        k(  379) = (  -0.5000000   0.1666667   0.0000000), wk =   0.0023148
        k(  380) = (  -0.5833333   0.2500000  -0.0833333), wk =   0.0023148
        k(  381) = (   0.3333333  -0.6666667   0.8333333), wk =   0.0023148
        k(  382) = (   0.2500000  -0.5833333   0.7500000), wk =   0.0023148
        k(  383) = (   0.1666667  -0.5000000   0.6666667), wk =   0.0023148
        k(  384) = (   0.0833333  -0.4166667   0.5833333), wk =   0.0023148
        k(  385) = (  -0.0000000  -0.3333333   0.5000000), wk =   0.0023148
        k(  386) = (  -0.0833333  -0.2500000   0.4166667), wk =   0.0023148
        k(  387) = (  -0.0833333  -0.0833333   0.4166667), wk =   0.0023148
        k(  388) = (  -0.1666667   0.0000000   0.3333333), wk =   0.0023148
        k(  389) = (  -0.2500000   0.0833333   0.2500000), wk =   0.0023148
        k(  390) = (  -0.3333333   0.1666667   0.1666667), wk =   0.0023148
        k(  391) = (  -0.4166667   0.2500000   0.0833333), wk =   0.0023148
        k(  392) = (  -0.5000000   0.3333333  -0.0000000), wk =   0.0023148
        k(  393) = (   0.4166667  -0.5833333   0.9166667), wk =   0.0023148
        k(  394) = (   0.3333333  -0.5000000   0.8333333), wk =   0.0023148
        k(  395) = (   0.2500000  -0.4166667   0.7500000), wk =   0.0023148
        k(  396) = (   0.1666667  -0.3333333   0.6666667), wk =   0.0023148
        k(  397) = (   0.0833333  -0.2500000   0.5833333), wk =   0.0023148
        k(  398) = (   0.0000000  -0.1666667   0.5000000), wk =   0.0023148
        k(  399) = (   0.0000000   0.0000000   0.5000000), wk =   0.0023148
        k(  400) = (  -0.0833333   0.0833333   0.4166667), wk =   0.0023148
        k(  401) = (  -0.1666667   0.1666667   0.3333333), wk =   0.0023148
        k(  402) = (  -0.2500000   0.2500000   0.2500000), wk =   0.0023148
        k(  403) = (  -0.3333333   0.3333333   0.1666667), wk =   0.0023148
        k(  404) = (  -0.4166667   0.4166667   0.0833333), wk =   0.0023148
        k(  405) = (   0.5000000  -0.5000000   1.0000000), wk =   0.0023148
        k(  406) = (   0.4166667  -0.4166667   0.9166667), wk =   0.0023148
        k(  407) = (   0.3333333  -0.3333333   0.8333333), wk =   0.0023148
        k(  408) = (   0.2500000  -0.2500000   0.7500000), wk =   0.0023148
        k(  409) = (   0.1666667  -0.1666667   0.6666667), wk =   0.0023148
        k(  410) = (   0.0833333  -0.0833333   0.5833333), wk =   0.0023148
        k(  411) = (   0.0833333   0.0833333   0.5833333), wk =   0.0023148
        k(  412) = (  -0.0000000   0.1666667   0.5000000), wk =   0.0023148
        k(  413) = (  -0.0833333   0.2500000   0.4166667), wk =   0.0023148
        k(  414) = (  -0.1666667   0.3333333   0.3333333), wk =   0.0023148
        k(  415) = (  -0.2500000   0.4166667   0.2500000), wk =   0.0023148
        k(  416) = (  -0.3333333   0.5000000   0.1666667), wk =   0.0023148
        k(  417) = (   0.5833333  -0.4166667   1.0833333), wk =   0.0023148
        k(  418) = (   0.5000000  -0.3333333   1.0000000), wk =   0.0023148
        k(  419) = (   0.4166667  -0.2500000   0.9166667), wk =   0.0023148
        k(  420) = (   0.3333333  -0.1666667   0.8333333), wk =   0.0023148
        k(  421) = (   0.2500000  -0.0833333   0.7500000), wk =   0.0023148
        k(  422) = (   0.1666667  -0.0000000   0.6666667), wk =   0.0023148
        k(  423) = (   0.1666667   0.1666667   0.6666667), wk =   0.0023148
        k(  424) = (   0.0833333   0.2500000   0.5833333), wk =   0.0023148
        k(  425) = (   0.0000000   0.3333333   0.5000000), wk =   0.0023148
        k(  426) = (  -0.0833333   0.4166667   0.4166667), wk =   0.0023148
        k(  427) = (  -0.1666667   0.5000000   0.3333333), wk =   0.0023148
        k(  428) = (  -0.2500000   0.5833333   0.2500000), wk =   0.0023148
        k(  429) = (   0.6666667  -0.3333333   1.1666667), wk =   0.0023148
        k(  430) = (   0.5833333  -0.2500000   1.0833333), wk =   0.0023148
        k(  431) = (   0.5000000  -0.1666667   1.0000000), wk =   0.0023148
        k(  432) = (   0.4166667  -0.0833333   0.9166667), wk =   0.0023148
        k(  433) = (   0.3333333   0.0000000   0.8333333), wk =   0.0023148
        k(  434) = (   0.2500000   0.0833333   0.7500000), wk =   0.0023148
        k(  435) = (  -0.7500000  -0.7500000  -0.2500000), wk =   0.0023148
        k(  436) = (  -0.8333333  -0.6666667  -0.3333333), wk =   0.0023148
        k(  437) = (  -0.9166667  -0.5833333  -0.4166667), wk =   0.0023148
        k(  438) = (  -1.0000000  -0.5000000  -0.5000000), wk =   0.0023148
        k(  439) = (  -1.0833333  -0.4166667  -0.5833333), wk =   0.0023148
        k(  440) = (  -1.1666667  -0.3333333  -0.6666667), wk =   0.0023148
        k(  441) = (  -0.2500000  -1.2500000   0.2500000), wk =   0.0023148
        k(  442) = (  -0.3333333  -1.1666667   0.1666667), wk =   0.0023148
        k(  443) = (  -0.4166667  -1.0833333   0.0833333), wk =   0.0023148
        k(  444) = (  -0.5000000  -1.0000000   0.0000000), wk =   0.0023148
        k(  445) = (  -0.5833333  -0.9166667  -0.0833333), wk =   0.0023148
        k(  446) = (  -0.6666667  -0.8333333  -0.1666667), wk =   0.0023148
        k(  447) = (  -0.6666667  -0.6666667  -0.1666667), wk =   0.0023148
        k(  448) = (  -0.7500000  -0.5833333  -0.2500000), wk =   0.0023148
        k(  449) = (  -0.8333333  -0.5000000  -0.3333333), wk =   0.0023148
        k(  450) = (  -0.9166667  -0.4166667  -0.4166667), wk =   0.0023148
        k(  451) = (  -1.0000000  -0.3333333  -0.5000000), wk =   0.0023148
        k(  452) = (  -1.0833333  -0.2500000  -0.5833333), wk =   0.0023148
        k(  453) = (  -0.1666667  -1.1666667   0.3333333), wk =   0.0023148
        k(  454) = (  -0.2500000  -1.0833333   0.2500000), wk =   0.0023148
        k(  455) = (  -0.3333333  -1.0000000   0.1666667), wk =   0.0023148
        k(  456) = (  -0.4166667  -0.9166667   0.0833333), wk =   0.0023148
        k(  457) = (  -0.5000000  -0.8333333   0.0000000), wk =   0.0023148
        k(  458) = (  -0.5833333  -0.7500000  -0.0833333), wk =   0.0023148
        k(  459) = (  -0.5833333  -0.5833333  -0.0833333), wk =   0.0023148
        k(  460) = (  -0.6666667  -0.5000000  -0.1666667), wk =   0.0023148
        k(  461) = (  -0.7500000  -0.4166667  -0.2500000), wk =   0.0023148
        k(  462) = (  -0.8333333  -0.3333333  -0.3333333), wk =   0.0023148
        k(  463) = (  -0.9166667  -0.2500000  -0.4166667), wk =   0.0023148
        k(  464) = (  -1.0000000  -0.1666667  -0.5000000), wk =   0.0023148
        k(  465) = (  -0.0833333  -1.0833333   0.4166667), wk =   0.0023148
        k(  466) = (  -0.1666667  -1.0000000   0.3333333), wk =   0.0023148
        k(  467) = (  -0.2500000  -0.9166667   0.2500000), wk =   0.0023148
        k(  468) = (  -0.3333333  -0.8333333   0.1666667), wk =   0.0023148
        k(  469) = (  -0.4166667  -0.7500000   0.0833333), wk =   0.0023148
        k(  470) = (  -0.5000000  -0.6666667   0.0000000), wk =   0.0023148
        k(  471) = (  -0.5000000  -0.5000000   0.0000000), wk =   0.0023148
        k(  472) = (  -0.5833333  -0.4166667  -0.0833333), wk =   0.0023148
        k(  473) = (  -0.6666667  -0.3333333  -0.1666667), wk =   0.0023148
        k(  474) = (  -0.7500000  -0.2500000  -0.2500000), wk =   0.0023148
        k(  475) = (  -0.8333333  -0.1666667  -0.3333333), wk =   0.0023148
        k(  476) = (  -0.9166667  -0.0833333  -0.4166667), wk =   0.0023148
        k(  477) = (   0.0000000  -1.0000000   0.5000000), wk =   0.0023148
        k(  478) = (  -0.0833333  -0.9166667   0.4166667), wk =   0.0023148
        k(  479) = (  -0.1666667  -0.8333333   0.3333333), wk =   0.0023148
        k(  480) = (  -0.2500000  -0.7500000   0.2500000), wk =   0.0023148
        k(  481) = (  -0.3333333  -0.6666667   0.1666667), wk =   0.0023148
        k(  482) = (  -0.4166667  -0.5833333   0.0833333), wk =   0.0023148
        k(  483) = (  -0.4166667  -0.4166667   0.0833333), wk =   0.0023148
        k(  484) = (  -0.5000000  -0.3333333   0.0000000), wk =   0.0023148
        k(  485) = (  -0.5833333  -0.2500000  -0.0833333), wk =   0.0023148
        k(  486) = (  -0.6666667  -0.1666667  -0.1666667), wk =   0.0023148
        k(  487) = (  -0.7500000  -0.0833333  -0.2500000), wk =   0.0023148
        k(  488) = (  -0.8333333   0.0000000  -0.3333333), wk =   0.0023148
        k(  489) = (   0.0833333  -0.9166667   0.5833333), wk =   0.0023148
        k(  490) = (   0.0000000  -0.8333333   0.5000000), wk =   0.0023148
        k(  491) = (  -0.0833333  -0.7500000   0.4166667), wk =   0.0023148
        k(  492) = (  -0.1666667  -0.6666667   0.3333333), wk =   0.0023148
        k(  493) = (  -0.2500000  -0.5833333   0.2500000), wk =   0.0023148
        k(  494) = (  -0.3333333  -0.5000000   0.1666667), wk =   0.0023148
        k(  495) = (  -0.3333333  -0.3333333   0.1666667), wk =   0.0023148
        k(  496) = (  -0.4166667  -0.2500000   0.0833333), wk =   0.0023148
        k(  497) = (  -0.5000000  -0.1666667   0.0000000), wk =   0.0023148
        k(  498) = (  -0.5833333  -0.0833333  -0.0833333), wk =   0.0023148
        k(  499) = (  -0.6666667   0.0000000  -0.1666667), wk =   0.0023148
        k(  500) = (  -0.7500000   0.0833333  -0.2500000), wk =   0.0023148
        k(  501) = (   0.1666667  -0.8333333   0.6666667), wk =   0.0023148
        k(  502) = (   0.0833333  -0.7500000   0.5833333), wk =   0.0023148
        k(  503) = (   0.0000000  -0.6666667   0.5000000), wk =   0.0023148
        k(  504) = (  -0.0833333  -0.5833333   0.4166667), wk =   0.0023148
        k(  505) = (  -0.1666667  -0.5000000   0.3333333), wk =   0.0023148
        k(  506) = (  -0.2500000  -0.4166667   0.2500000), wk =   0.0023148
        k(  507) = (  -0.3333333  -0.3333333   0.3333333), wk =   0.0023148
        k(  508) = (  -0.4166667  -0.2500000   0.2500000), wk =   0.0023148
        k(  509) = (  -0.5000000  -0.1666667   0.1666667), wk =   0.0023148
        k(  510) = (  -0.5833333  -0.0833333   0.0833333), wk =   0.0023148
        k(  511) = (  -0.6666667   0.0000000   0.0000000), wk =   0.0023148
        k(  512) = (  -0.7500000   0.0833333  -0.0833333), wk =   0.0023148
        k(  513) = (   0.1666667  -0.8333333   0.8333333), wk =   0.0023148
        k(  514) = (   0.0833333  -0.7500000   0.7500000), wk =   0.0023148
        k(  515) = (   0.0000000  -0.6666667   0.6666667), wk =   0.0023148
        k(  516) = (  -0.0833333  -0.5833333   0.5833333), wk =   0.0023148
        k(  517) = (  -0.1666667  -0.5000000   0.5000000), wk =   0.0023148
        k(  518) = (  -0.2500000  -0.4166667   0.4166667), wk =   0.0023148
        k(  519) = (  -0.2500000  -0.2500000   0.4166667), wk =   0.0023148
        k(  520) = (  -0.3333333  -0.1666667   0.3333333), wk =   0.0023148
        k(  521) = (  -0.4166667  -0.0833333   0.2500000), wk =   0.0023148
        k(  522) = (  -0.5000000   0.0000000   0.1666667), wk =   0.0023148
        k(  523) = (  -0.5833333   0.0833333   0.0833333), wk =   0.0023148
        k(  524) = (  -0.6666667   0.1666667  -0.0000000), wk =   0.0023148
        k(  525) = (   0.2500000  -0.7500000   0.9166667), wk =   0.0023148
        k(  526) = (   0.1666667  -0.6666667   0.8333333), wk =   0.0023148
        k(  527) = (   0.0833333  -0.5833333   0.7500000), wk =   0.0023148
        k(  528) = (   0.0000000  -0.5000000   0.6666667), wk =   0.0023148
        k(  529) = (  -0.0833333  -0.4166667   0.5833333), wk =   0.0023148
        k(  530) = (  -0.1666667  -0.3333333   0.5000000), wk =   0.0023148
        k(  531) = (  -0.1666667  -0.1666667   0.5000000), wk =   0.0023148
        k(  532) = (  -0.2500000  -0.0833333   0.4166667), wk =   0.0023148
        k(  533) = (  -0.3333333  -0.0000000   0.3333333), wk =   0.0023148
        k(  534) = (  -0.4166667   0.0833333   0.2500000), wk =   0.0023148
        k(  535) = (  -0.5000000   0.1666667   0.1666667), wk =   0.0023148
        k(  536) = (  -0.5833333   0.2500000   0.0833333), wk =   0.0023148
        k(  537) = (   0.3333333  -0.6666667   1.0000000), wk =   0.0023148
        k(  538) = (   0.2500000  -0.5833333   0.9166667), wk =   0.0023148
        k(  539) = (   0.1666667  -0.5000000   0.8333333), wk =   0.0023148
        k(  540) = (   0.0833333  -0.4166667   0.7500000), wk =   0.0023148
        k(  541) = (   0.0000000  -0.3333333   0.6666667), wk =   0.0023148
        k(  542) = (  -0.0833333  -0.2500000   0.5833333), wk =   0.0023148
        k(  543) = (  -0.0833333  -0.0833333   0.5833333), wk =   0.0023148
        k(  544) = (  -0.1666667   0.0000000   0.5000000), wk =   0.0023148
        k(  545) = (  -0.2500000   0.0833333   0.4166667), wk =   0.0023148
        k(  546) = (  -0.3333333   0.1666667   0.3333333), wk =   0.0023148
        k(  547) = (  -0.4166667   0.2500000   0.2500000), wk =   0.0023148
        k(  548) = (  -0.5000000   0.3333333   0.1666667), wk =   0.0023148
        k(  549) = (   0.4166667  -0.5833333   1.0833333), wk =   0.0023148
        k(  550) = (   0.3333333  -0.5000000   1.0000000), wk =   0.0023148
        k(  551) = (   0.2500000  -0.4166667   0.9166667), wk =   0.0023148
        k(  552) = (   0.1666667  -0.3333333   0.8333333), wk =   0.0023148
        k(  553) = (   0.0833333  -0.2500000   0.7500000), wk =   0.0023148
        k(  554) = (   0.0000000  -0.1666667   0.6666667), wk =   0.0023148
        k(  555) = (   0.0000000   0.0000000   0.6666667), wk =   0.0023148
        k(  556) = (  -0.0833333   0.0833333   0.5833333), wk =   0.0023148
        k(  557) = (  -0.1666667   0.1666667   0.5000000), wk =   0.0023148
        k(  558) = (  -0.2500000   0.2500000   0.4166667), wk =   0.0023148
        k(  559) = (  -0.3333333   0.3333333   0.3333333), wk =   0.0023148
        k(  560) = (  -0.4166667   0.4166667   0.2500000), wk =   0.0023148
        k(  561) = (   0.5000000  -0.5000000   1.1666667), wk =   0.0023148
        k(  562) = (   0.4166667  -0.4166667   1.0833333), wk =   0.0023148
        k(  563) = (   0.3333333  -0.3333333   1.0000000), wk =   0.0023148
        k(  564) = (   0.2500000  -0.2500000   0.9166667), wk =   0.0023148
        k(  565) = (   0.1666667  -0.1666667   0.8333333), wk =   0.0023148
        k(  566) = (   0.0833333  -0.0833333   0.7500000), wk =   0.0023148
        k(  567) = (   0.0833333   0.0833333   0.7500000), wk =   0.0023148
        k(  568) = (   0.0000000   0.1666667   0.6666667), wk =   0.0023148
        k(  569) = (  -0.0833333   0.2500000   0.5833333), wk =   0.0023148
        k(  570) = (  -0.1666667   0.3333333   0.5000000), wk =   0.0023148
        k(  571) = (  -0.2500000   0.4166667   0.4166667), wk =   0.0023148
        k(  572) = (  -0.3333333   0.5000000   0.3333333), wk =   0.0023148
        k(  573) = (   0.5833333  -0.4166667   1.2500000), wk =   0.0023148
        k(  574) = (   0.5000000  -0.3333333   1.1666667), wk =   0.0023148
        k(  575) = (   0.4166667  -0.2500000   1.0833333), wk =   0.0023148
        k(  576) = (   0.3333333  -0.1666667   1.0000000), wk =   0.0023148
        k(  577) = (   0.2500000  -0.0833333   0.9166667), wk =   0.0023148
        k(  578) = (   0.1666667   0.0000000   0.8333333), wk =   0.0023148
        k(  579) = (  -0.8333333  -0.8333333  -0.1666667), wk =   0.0023148
        k(  580) = (  -0.9166667  -0.7500000  -0.2500000), wk =   0.0023148
        k(  581) = (  -1.0000000  -0.6666667  -0.3333333), wk =   0.0023148
        k(  582) = (  -1.0833333  -0.5833333  -0.4166667), wk =   0.0023148
        k(  583) = (  -1.1666667  -0.5000000  -0.5000000), wk =   0.0023148
        k(  584) = (  -1.2500000  -0.4166667  -0.5833333), wk =   0.0023148
        k(  585) = (  -0.3333333  -1.3333333   0.3333333), wk =   0.0023148
        k(  586) = (  -0.4166667  -1.2500000   0.2500000), wk =   0.0023148
        k(  587) = (  -0.5000000  -1.1666667   0.1666667), wk =   0.0023148
        k(  588) = (  -0.5833333  -1.0833333   0.0833333), wk =   0.0023148
        k(  589) = (  -0.6666667  -1.0000000  -0.0000000), wk =   0.0023148
        k(  590) = (  -0.7500000  -0.9166667  -0.0833333), wk =   0.0023148
        k(  591) = (  -0.7500000  -0.7500000  -0.0833333), wk =   0.0023148
        k(  592) = (  -0.8333333  -0.6666667  -0.1666667), wk =   0.0023148
        k(  593) = (  -0.9166667  -0.5833333  -0.2500000), wk =   0.0023148
        k(  594) = (  -1.0000000  -0.5000000  -0.3333333), wk =   0.0023148
        k(  595) = (  -1.0833333  -0.4166667  -0.4166667), wk =   0.0023148
        k(  596) = (  -1.1666667  -0.3333333  -0.5000000), wk =   0.0023148
        k(  597) = (  -0.2500000  -1.2500000   0.4166667), wk =   0.0023148
        k(  598) = (  -0.3333333  -1.1666667   0.3333333), wk =   0.0023148
        k(  599) = (  -0.4166667  -1.0833333   0.2500000), wk =   0.0023148
        k(  600) = (  -0.5000000  -1.0000000   0.1666667), wk =   0.0023148
        k(  601) = (  -0.5833333  -0.9166667   0.0833333), wk =   0.0023148
        k(  602) = (  -0.6666667  -0.8333333   0.0000000), wk =   0.0023148
        k(  603) = (  -0.6666667  -0.6666667   0.0000000), wk =   0.0023148
        k(  604) = (  -0.7500000  -0.5833333  -0.0833333), wk =   0.0023148
        k(  605) = (  -0.8333333  -0.5000000  -0.1666667), wk =   0.0023148
        k(  606) = (  -0.9166667  -0.4166667  -0.2500000), wk =   0.0023148
        k(  607) = (  -1.0000000  -0.3333333  -0.3333333), wk =   0.0023148
        k(  608) = (  -1.0833333  -0.2500000  -0.4166667), wk =   0.0023148
        k(  609) = (  -0.1666667  -1.1666667   0.5000000), wk =   0.0023148
        k(  610) = (  -0.2500000  -1.0833333   0.4166667), wk =   0.0023148
        k(  611) = (  -0.3333333  -1.0000000   0.3333333), wk =   0.0023148
        k(  612) = (  -0.4166667  -0.9166667   0.2500000), wk =   0.0023148
        k(  613) = (  -0.5000000  -0.8333333   0.1666667), wk =   0.0023148
        k(  614) = (  -0.5833333  -0.7500000   0.0833333), wk =   0.0023148
        k(  615) = (  -0.5833333  -0.5833333   0.0833333), wk =   0.0023148
        k(  616) = (  -0.6666667  -0.5000000   0.0000000), wk =   0.0023148
        k(  617) = (  -0.7500000  -0.4166667  -0.0833333), wk =   0.0023148
        k(  618) = (  -0.8333333  -0.3333333  -0.1666667), wk =   0.0023148
        k(  619) = (  -0.9166667  -0.2500000  -0.2500000), wk =   0.0023148
        k(  620) = (  -1.0000000  -0.1666667  -0.3333333), wk =   0.0023148
        k(  621) = (  -0.0833333  -1.0833333   0.5833333), wk =   0.0023148
        k(  622) = (  -0.1666667  -1.0000000   0.5000000), wk =   0.0023148
        k(  623) = (  -0.2500000  -0.9166667   0.4166667), wk =   0.0023148
        k(  624) = (  -0.3333333  -0.8333333   0.3333333), wk =   0.0023148
        k(  625) = (  -0.4166667  -0.7500000   0.2500000), wk =   0.0023148
        k(  626) = (  -0.5000000  -0.6666667   0.1666667), wk =   0.0023148
        k(  627) = (  -0.5000000  -0.5000000   0.1666667), wk =   0.0023148
        k(  628) = (  -0.5833333  -0.4166667   0.0833333), wk =   0.0023148
        k(  629) = (  -0.6666667  -0.3333333   0.0000000), wk =   0.0023148
        k(  630) = (  -0.7500000  -0.2500000  -0.0833333), wk =   0.0023148
        k(  631) = (  -0.8333333  -0.1666667  -0.1666667), wk =   0.0023148
        k(  632) = (  -0.9166667  -0.0833333  -0.2500000), wk =   0.0023148
        k(  633) = (   0.0000000  -1.0000000   0.6666667), wk =   0.0023148
        k(  634) = (  -0.0833333  -0.9166667   0.5833333), wk =   0.0023148
        k(  635) = (  -0.1666667  -0.8333333   0.5000000), wk =   0.0023148
        k(  636) = (  -0.2500000  -0.7500000   0.4166667), wk =   0.0023148
        k(  637) = (  -0.3333333  -0.6666667   0.3333333), wk =   0.0023148
        k(  638) = (  -0.4166667  -0.5833333   0.2500000), wk =   0.0023148
        k(  639) = (  -0.4166667  -0.4166667   0.2500000), wk =   0.0023148
        k(  640) = (  -0.5000000  -0.3333333   0.1666667), wk =   0.0023148
        k(  641) = (  -0.5833333  -0.2500000   0.0833333), wk =   0.0023148
        k(  642) = (  -0.6666667  -0.1666667   0.0000000), wk =   0.0023148
        k(  643) = (  -0.7500000  -0.0833333  -0.0833333), wk =   0.0023148
        k(  644) = (  -0.8333333   0.0000000  -0.1666667), wk =   0.0023148
        k(  645) = (   0.0833333  -0.9166667   0.7500000), wk =   0.0023148
        k(  646) = (   0.0000000  -0.8333333   0.6666667), wk =   0.0023148
        k(  647) = (  -0.0833333  -0.7500000   0.5833333), wk =   0.0023148
        k(  648) = (  -0.1666667  -0.6666667   0.5000000), wk =   0.0023148
        k(  649) = (  -0.2500000  -0.5833333   0.4166667), wk =   0.0023148
        k(  650) = (  -0.3333333  -0.5000000   0.3333333), wk =   0.0023148
        k(  651) = (  -0.4166667  -0.4166667   0.4166667), wk =   0.0023148
        k(  652) = (  -0.5000000  -0.3333333   0.3333333), wk =   0.0023148
        k(  653) = (  -0.5833333  -0.2500000   0.2500000), wk =   0.0023148
        k(  654) = (  -0.6666667  -0.1666667   0.1666667), wk =   0.0023148
        k(  655) = (  -0.7500000  -0.0833333   0.0833333), wk =   0.0023148
        k(  656) = (  -0.8333333   0.0000000   0.0000000), wk =   0.0023148
        k(  657) = (   0.0833333  -0.9166667   0.9166667), wk =   0.0023148
        k(  658) = (   0.0000000  -0.8333333   0.8333333), wk =   0.0023148
        k(  659) = (  -0.0833333  -0.7500000   0.7500000), wk =   0.0023148
        k(  660) = (  -0.1666667  -0.6666667   0.6666667), wk =   0.0023148
        k(  661) = (  -0.2500000  -0.5833333   0.5833333), wk =   0.0023148
        k(  662) = (  -0.3333333  -0.5000000   0.5000000), wk =   0.0023148
        k(  663) = (  -0.3333333  -0.3333333   0.5000000), wk =   0.0023148
        k(  664) = (  -0.4166667  -0.2500000   0.4166667), wk =   0.0023148
        k(  665) = (  -0.5000000  -0.1666667   0.3333333), wk =   0.0023148
        k(  666) = (  -0.5833333  -0.0833333   0.2500000), wk =   0.0023148
        k(  667) = (  -0.6666667  -0.0000000   0.1666667), wk =   0.0023148
        k(  668) = (  -0.7500000   0.0833333   0.0833333), wk =   0.0023148
        k(  669) = (   0.1666667  -0.8333333   1.0000000), wk =   0.0023148
        k(  670) = (   0.0833333  -0.7500000   0.9166667), wk =   0.0023148
        k(  671) = (   0.0000000  -0.6666667   0.8333333), wk =   0.0023148
        k(  672) = (  -0.0833333  -0.5833333   0.7500000), wk =   0.0023148
        k(  673) = (  -0.1666667  -0.5000000   0.6666667), wk =   0.0023148
        k(  674) = (  -0.2500000  -0.4166667   0.5833333), wk =   0.0023148
        k(  675) = (  -0.2500000  -0.2500000   0.5833333), wk =   0.0023148
        k(  676) = (  -0.3333333  -0.1666667   0.5000000), wk =   0.0023148
        k(  677) = (  -0.4166667  -0.0833333   0.4166667), wk =   0.0023148
        k(  678) = (  -0.5000000   0.0000000   0.3333333), wk =   0.0023148
        k(  679) = (  -0.5833333   0.0833333   0.2500000), wk =   0.0023148
        k(  680) = (  -0.6666667   0.1666667   0.1666667), wk =   0.0023148
        k(  681) = (   0.2500000  -0.7500000   1.0833333), wk =   0.0023148
        k(  682) = (   0.1666667  -0.6666667   1.0000000), wk =   0.0023148
        k(  683) = (   0.0833333  -0.5833333   0.9166667), wk =   0.0023148
        k(  684) = (   0.0000000  -0.5000000   0.8333333), wk =   0.0023148
        k(  685) = (  -0.0833333  -0.4166667   0.7500000), wk =   0.0023148
        k(  686) = (  -0.1666667  -0.3333333   0.6666667), wk =   0.0023148
        k(  687) = (  -0.1666667  -0.1666667   0.6666667), wk =   0.0023148
        k(  688) = (  -0.2500000  -0.0833333   0.5833333), wk =   0.0023148
        k(  689) = (  -0.3333333   0.0000000   0.5000000), wk =   0.0023148
        k(  690) = (  -0.4166667   0.0833333   0.4166667), wk =   0.0023148
        k(  691) = (  -0.5000000   0.1666667   0.3333333), wk =   0.0023148
        k(  692) = (  -0.5833333   0.2500000   0.2500000), wk =   0.0023148
        k(  693) = (   0.3333333  -0.6666667   1.1666667), wk =   0.0023148
        k(  694) = (   0.2500000  -0.5833333   1.0833333), wk =   0.0023148
        k(  695) = (   0.1666667  -0.5000000   1.0000000), wk =   0.0023148
        k(  696) = (   0.0833333  -0.4166667   0.9166667), wk =   0.0023148
        k(  697) = (  -0.0000000  -0.3333333   0.8333333), wk =   0.0023148
        k(  698) = (  -0.0833333  -0.2500000   0.7500000), wk =   0.0023148
        k(  699) = (  -0.0833333  -0.0833333   0.7500000), wk =   0.0023148
        k(  700) = (  -0.1666667   0.0000000   0.6666667), wk =   0.0023148
        k(  701) = (  -0.2500000   0.0833333   0.5833333), wk =   0.0023148
        k(  702) = (  -0.3333333   0.1666667   0.5000000), wk =   0.0023148
        k(  703) = (  -0.4166667   0.2500000   0.4166667), wk =   0.0023148
        k(  704) = (  -0.5000000   0.3333333   0.3333333), wk =   0.0023148
        k(  705) = (   0.4166667  -0.5833333   1.2500000), wk =   0.0023148
        k(  706) = (   0.3333333  -0.5000000   1.1666667), wk =   0.0023148
        k(  707) = (   0.2500000  -0.4166667   1.0833333), wk =   0.0023148
        k(  708) = (   0.1666667  -0.3333333   1.0000000), wk =   0.0023148
        k(  709) = (   0.0833333  -0.2500000   0.9166667), wk =   0.0023148
        k(  710) = (   0.0000000  -0.1666667   0.8333333), wk =   0.0023148
        k(  711) = (   0.0000000   0.0000000   0.8333333), wk =   0.0023148
        k(  712) = (  -0.0833333   0.0833333   0.7500000), wk =   0.0023148
        k(  713) = (  -0.1666667   0.1666667   0.6666667), wk =   0.0023148
        k(  714) = (  -0.2500000   0.2500000   0.5833333), wk =   0.0023148
        k(  715) = (  -0.3333333   0.3333333   0.5000000), wk =   0.0023148
        k(  716) = (  -0.4166667   0.4166667   0.4166667), wk =   0.0023148
        k(  717) = (   0.5000000  -0.5000000   1.3333333), wk =   0.0023148
        k(  718) = (   0.4166667  -0.4166667   1.2500000), wk =   0.0023148
        k(  719) = (   0.3333333  -0.3333333   1.1666667), wk =   0.0023148
        k(  720) = (   0.2500000  -0.2500000   1.0833333), wk =   0.0023148
        k(  721) = (   0.1666667  -0.1666667   1.0000000), wk =   0.0023148
        k(  722) = (   0.0833333  -0.0833333   0.9166667), wk =   0.0023148
        k(  723) = (  -0.9166667  -0.9166667  -0.0833333), wk =   0.0023148
        k(  724) = (  -1.0000000  -0.8333333  -0.1666667), wk =   0.0023148
        k(  725) = (  -1.0833333  -0.7500000  -0.2500000), wk =   0.0023148
        k(  726) = (  -1.1666667  -0.6666667  -0.3333333), wk =   0.0023148
        k(  727) = (  -1.2500000  -0.5833333  -0.4166667), wk =   0.0023148
        k(  728) = (  -1.3333333  -0.5000000  -0.5000000), wk =   0.0023148
        k(  729) = (  -0.4166667  -1.4166667   0.4166667), wk =   0.0023148
        k(  730) = (  -0.5000000  -1.3333333   0.3333333), wk =   0.0023148
        k(  731) = (  -0.5833333  -1.2500000   0.2500000), wk =   0.0023148
        k(  732) = (  -0.6666667  -1.1666667   0.1666667), wk =   0.0023148
        k(  733) = (  -0.7500000  -1.0833333   0.0833333), wk =   0.0023148
        k(  734) = (  -0.8333333  -1.0000000   0.0000000), wk =   0.0023148
        k(  735) = (  -0.8333333  -0.8333333   0.0000000), wk =   0.0023148
        k(  736) = (  -0.9166667  -0.7500000  -0.0833333), wk =   0.0023148
        k(  737) = (  -1.0000000  -0.6666667  -0.1666667), wk =   0.0023148
        k(  738) = (  -1.0833333  -0.5833333  -0.2500000), wk =   0.0023148
        k(  739) = (  -1.1666667  -0.5000000  -0.3333333), wk =   0.0023148
        k(  740) = (  -1.2500000  -0.4166667  -0.4166667), wk =   0.0023148
        k(  741) = (  -0.3333333  -1.3333333   0.5000000), wk =   0.0023148
        k(  742) = (  -0.4166667  -1.2500000   0.4166667), wk =   0.0023148
        k(  743) = (  -0.5000000  -1.1666667   0.3333333), wk =   0.0023148
        k(  744) = (  -0.5833333  -1.0833333   0.2500000), wk =   0.0023148
        k(  745) = (  -0.6666667  -1.0000000   0.1666667), wk =   0.0023148
        k(  746) = (  -0.7500000  -0.9166667   0.0833333), wk =   0.0023148
        k(  747) = (  -0.7500000  -0.7500000   0.0833333), wk =   0.0023148
        k(  748) = (  -0.8333333  -0.6666667   0.0000000), wk =   0.0023148
        k(  749) = (  -0.9166667  -0.5833333  -0.0833333), wk =   0.0023148
        k(  750) = (  -1.0000000  -0.5000000  -0.1666667), wk =   0.0023148
        k(  751) = (  -1.0833333  -0.4166667  -0.2500000), wk =   0.0023148
        k(  752) = (  -1.1666667  -0.3333333  -0.3333333), wk =   0.0023148
        k(  753) = (  -0.2500000  -1.2500000   0.5833333), wk =   0.0023148
        k(  754) = (  -0.3333333  -1.1666667   0.5000000), wk =   0.0023148
        k(  755) = (  -0.4166667  -1.0833333   0.4166667), wk =   0.0023148
        k(  756) = (  -0.5000000  -1.0000000   0.3333333), wk =   0.0023148
        k(  757) = (  -0.5833333  -0.9166667   0.2500000), wk =   0.0023148
        k(  758) = (  -0.6666667  -0.8333333   0.1666667), wk =   0.0023148
        k(  759) = (  -0.6666667  -0.6666667   0.1666667), wk =   0.0023148
        k(  760) = (  -0.7500000  -0.5833333   0.0833333), wk =   0.0023148
        k(  761) = (  -0.8333333  -0.5000000   0.0000000), wk =   0.0023148
        k(  762) = (  -0.9166667  -0.4166667  -0.0833333), wk =   0.0023148
        k(  763) = (  -1.0000000  -0.3333333  -0.1666667), wk =   0.0023148
        k(  764) = (  -1.0833333  -0.2500000  -0.2500000), wk =   0.0023148
        k(  765) = (  -0.1666667  -1.1666667   0.6666667), wk =   0.0023148
        k(  766) = (  -0.2500000  -1.0833333   0.5833333), wk =   0.0023148
        k(  767) = (  -0.3333333  -1.0000000   0.5000000), wk =   0.0023148
        k(  768) = (  -0.4166667  -0.9166667   0.4166667), wk =   0.0023148
        k(  769) = (  -0.5000000  -0.8333333   0.3333333), wk =   0.0023148
        k(  770) = (  -0.5833333  -0.7500000   0.2500000), wk =   0.0023148
        k(  771) = (  -0.5833333  -0.5833333   0.2500000), wk =   0.0023148
        k(  772) = (  -0.6666667  -0.5000000   0.1666667), wk =   0.0023148
        k(  773) = (  -0.7500000  -0.4166667   0.0833333), wk =   0.0023148
        k(  774) = (  -0.8333333  -0.3333333   0.0000000), wk =   0.0023148
        k(  775) = (  -0.9166667  -0.2500000  -0.0833333), wk =   0.0023148
        k(  776) = (  -1.0000000  -0.1666667  -0.1666667), wk =   0.0023148
        k(  777) = (  -0.0833333  -1.0833333   0.7500000), wk =   0.0023148
        k(  778) = (  -0.1666667  -1.0000000   0.6666667), wk =   0.0023148
        k(  779) = (  -0.2500000  -0.9166667   0.5833333), wk =   0.0023148
        k(  780) = (  -0.3333333  -0.8333333   0.5000000), wk =   0.0023148
        k(  781) = (  -0.4166667  -0.7500000   0.4166667), wk =   0.0023148
        k(  782) = (  -0.5000000  -0.6666667   0.3333333), wk =   0.0023148
        k(  783) = (  -0.5000000  -0.5000000   0.3333333), wk =   0.0023148
        k(  784) = (  -0.5833333  -0.4166667   0.2500000), wk =   0.0023148
        k(  785) = (  -0.6666667  -0.3333333   0.1666667), wk =   0.0023148
        k(  786) = (  -0.7500000  -0.2500000   0.0833333), wk =   0.0023148
        k(  787) = (  -0.8333333  -0.1666667   0.0000000), wk =   0.0023148
        k(  788) = (  -0.9166667  -0.0833333  -0.0833333), wk =   0.0023148
        k(  789) = (   0.0000000  -1.0000000   0.8333333), wk =   0.0023148
        k(  790) = (  -0.0833333  -0.9166667   0.7500000), wk =   0.0023148
        k(  791) = (  -0.1666667  -0.8333333   0.6666667), wk =   0.0023148
        k(  792) = (  -0.2500000  -0.7500000   0.5833333), wk =   0.0023148
        k(  793) = (  -0.3333333  -0.6666667   0.5000000), wk =   0.0023148
        k(  794) = (  -0.4166667  -0.5833333   0.4166667), wk =   0.0023148
        k(  795) = (   0.5000000   0.5000000  -0.5000000), wk =   0.0011574
        k(  796) = (   0.4166667   0.5833333  -0.5833333), wk =   0.0023148
        k(  797) = (   0.3333333   0.6666667  -0.6666667), wk =   0.0023148
        k(  798) = (   0.2500000   0.7500000  -0.7500000), wk =   0.0023148
        k(  799) = (   0.1666667   0.8333333  -0.8333333), wk =   0.0023148
        k(  800) = (   0.0833333   0.9166667  -0.9166667), wk =   0.0023148
        k(  801) = (   1.0000000   0.0000000   0.0000000), wk =   0.0011574
        k(  802) = (   0.5833333   0.5833333  -0.4166667), wk =   0.0023148
        k(  803) = (   0.5000000   0.6666667  -0.5000000), wk =   0.0023148
        k(  804) = (   0.4166667   0.7500000  -0.5833333), wk =   0.0023148
        k(  805) = (   0.3333333   0.8333333  -0.6666667), wk =   0.0023148
        k(  806) = (   0.2500000   0.9166667  -0.7500000), wk =   0.0023148
        k(  807) = (   0.1666667   1.0000000  -0.8333333), wk =   0.0023148
        k(  808) = (   1.0833333   0.0833333   0.0833333), wk =   0.0023148
        k(  809) = (   1.0000000   0.1666667   0.0000000), wk =   0.0023148
        k(  810) = (   0.9166667   0.2500000  -0.0833333), wk =   0.0023148
        k(  811) = (   0.8333333   0.3333333  -0.1666667), wk =   0.0023148
        k(  812) = (   0.7500000   0.4166667  -0.2500000), wk =   0.0023148
        k(  813) = (   0.6666667   0.5000000  -0.3333333), wk =   0.0023148
        k(  814) = (   0.6666667   0.6666667  -0.3333333), wk =   0.0023148
        k(  815) = (   0.5833333   0.7500000  -0.4166667), wk =   0.0023148
        k(  816) = (   0.5000000   0.8333333  -0.5000000), wk =   0.0023148
        k(  817) = (   0.4166667   0.9166667  -0.5833333), wk =   0.0023148
        k(  818) = (   0.3333333   1.0000000  -0.6666667), wk =   0.0023148
        k(  819) = (   0.2500000   1.0833333  -0.7500000), wk =   0.0023148
        k(  820) = (   1.1666667   0.1666667   0.1666667), wk =   0.0023148
        k(  821) = (   1.0833333   0.2500000   0.0833333), wk =   0.0023148
        k(  822) = (   1.0000000   0.3333333   0.0000000), wk =   0.0023148
        k(  823) = (   0.9166667   0.4166667  -0.0833333), wk =   0.0023148
        k(  824) = (   0.8333333   0.5000000  -0.1666667), wk =   0.0023148
        k(  825) = (   0.7500000   0.5833333  -0.2500000), wk =   0.0023148
        k(  826) = (   0.7500000   0.7500000  -0.2500000), wk =   0.0023148
        k(  827) = (   0.6666667   0.8333333  -0.3333333), wk =   0.0023148
        k(  828) = (   0.5833333   0.9166667  -0.4166667), wk =   0.0023148
        k(  829) = (   0.5000000   1.0000000  -0.5000000), wk =   0.0023148
        k(  830) = (   0.4166667   1.0833333  -0.5833333), wk =   0.0023148
        k(  831) = (   0.3333333   1.1666667  -0.6666667), wk =   0.0023148
        k(  832) = (   1.2500000   0.2500000   0.2500000), wk =   0.0023148
        k(  833) = (   1.1666667   0.3333333   0.1666667), wk =   0.0023148
        k(  834) = (   1.0833333   0.4166667   0.0833333), wk =   0.0023148
        k(  835) = (   1.0000000   0.5000000   0.0000000), wk =   0.0023148
        k(  836) = (   0.9166667   0.5833333  -0.0833333), wk =   0.0023148
        k(  837) = (   0.8333333   0.6666667  -0.1666667), wk =   0.0023148
        k(  838) = (   0.8333333   0.8333333  -0.1666667), wk =   0.0023148
        k(  839) = (   0.7500000   0.9166667  -0.2500000), wk =   0.0023148
        k(  840) = (   0.6666667   1.0000000  -0.3333333), wk =   0.0023148
        k(  841) = (   0.5833333   1.0833333  -0.4166667), wk =   0.0023148
        k(  842) = (   0.5000000   1.1666667  -0.5000000), wk =   0.0023148
        k(  843) = (   0.4166667   1.2500000  -0.5833333), wk =   0.0023148
        k(  844) = (   1.3333333   0.3333333   0.3333333), wk =   0.0023148
        k(  845) = (   1.2500000   0.4166667   0.2500000), wk =   0.0023148
        k(  846) = (   1.1666667   0.5000000   0.1666667), wk =   0.0023148
        k(  847) = (   1.0833333   0.5833333   0.0833333), wk =   0.0023148
        k(  848) = (   1.0000000   0.6666667  -0.0000000), wk =   0.0023148
        k(  849) = (   0.9166667   0.7500000  -0.0833333), wk =   0.0023148
        k(  850) = (   0.9166667   0.9166667  -0.0833333), wk =   0.0023148
        k(  851) = (   0.8333333   1.0000000  -0.1666667), wk =   0.0023148
        k(  852) = (   0.7500000   1.0833333  -0.2500000), wk =   0.0023148
        k(  853) = (   0.6666667   1.1666667  -0.3333333), wk =   0.0023148
        k(  854) = (   0.5833333   1.2500000  -0.4166667), wk =   0.0023148
        k(  855) = (   0.5000000   1.3333333  -0.5000000), wk =   0.0023148
        k(  856) = (   1.4166667   0.4166667   0.4166667), wk =   0.0023148
        k(  857) = (   1.3333333   0.5000000   0.3333333), wk =   0.0023148
        k(  858) = (   1.2500000   0.5833333   0.2500000), wk =   0.0023148
        k(  859) = (   1.1666667   0.6666667   0.1666667), wk =   0.0023148
        k(  860) = (   1.0833333   0.7500000   0.0833333), wk =   0.0023148
        k(  861) = (   1.0000000   0.8333333   0.0000000), wk =   0.0023148
        k(  862) = (   0.0000000   0.0000000  -1.0000000), wk =   0.0011574
        k(  863) = (  -0.0833333   0.0833333  -1.0833333), wk =   0.0023148
        k(  864) = (  -0.1666667   0.1666667  -1.1666667), wk =   0.0023148
        k(  865) = (  -0.2500000   0.2500000  -1.2500000), wk =   0.0023148
        k(  866) = (  -0.3333333   0.3333333  -1.3333333), wk =   0.0023148
        k(  867) = (  -0.4166667   0.4166667  -1.4166667), wk =   0.0023148
        k(  868) = (   0.5000000  -0.5000000  -0.5000000), wk =   0.0011574

                       cryst. coord.
        k(    1) = (   0.0000000   0.0000000   0.0000000), wk =   0.0011574
        k(    2) = (   0.0000000   0.0000000   0.0833333), wk =   0.0023148
        k(    3) = (   0.0000000   0.0000000   0.1666667), wk =   0.0023148
        k(    4) = (   0.0000000   0.0000000   0.2500000), wk =   0.0023148
        k(    5) = (   0.0000000   0.0000000   0.3333333), wk =   0.0023148
        k(    6) = (   0.0000000   0.0000000   0.4166667), wk =   0.0023148
        k(    7) = (   0.0000000   0.0000000  -0.5000000), wk =   0.0011574
        k(    8) = (   0.0000000   0.0833333   0.0000000), wk =   0.0023148
        k(    9) = (   0.0000000   0.0833333   0.0833333), wk =   0.0023148
        k(   10) = (   0.0000000   0.0833333   0.1666667), wk =   0.0023148
        k(   11) = (   0.0000000   0.0833333   0.2500000), wk =   0.0023148
        k(   12) = (   0.0000000   0.0833333   0.3333333), wk =   0.0023148
        k(   13) = (   0.0000000   0.0833333   0.4166667), wk =   0.0023148
        k(   14) = (   0.0000000   0.0833333  -0.5000000), wk =   0.0023148
        k(   15) = (   0.0000000   0.0833333  -0.4166667), wk =   0.0023148
        k(   16) = (   0.0000000   0.0833333  -0.3333333), wk =   0.0023148
        k(   17) = (   0.0000000   0.0833333  -0.2500000), wk =   0.0023148
        k(   18) = (   0.0000000   0.0833333  -0.1666667), wk =   0.0023148
        k(   19) = (   0.0000000   0.0833333  -0.0833333), wk =   0.0023148
        k(   20) = (   0.0000000   0.1666667   0.0000000), wk =   0.0023148
        k(   21) = (   0.0000000   0.1666667   0.0833333), wk =   0.0023148
        k(   22) = (   0.0000000   0.1666667   0.1666667), wk =   0.0023148
        k(   23) = (   0.0000000   0.1666667   0.2500000), wk =   0.0023148
        k(   24) = (   0.0000000   0.1666667   0.3333333), wk =   0.0023148
        k(   25) = (   0.0000000   0.1666667   0.4166667), wk =   0.0023148
        k(   26) = (   0.0000000   0.1666667  -0.5000000), wk =   0.0023148
        k(   27) = (   0.0000000   0.1666667  -0.4166667), wk =   0.0023148
        k(   28) = (   0.0000000   0.1666667  -0.3333333), wk =   0.0023148
        k(   29) = (   0.0000000   0.1666667  -0.2500000), wk =   0.0023148
        k(   30) = (   0.0000000   0.1666667  -0.1666667), wk =   0.0023148
        k(   31) = (   0.0000000   0.1666667  -0.0833333), wk =   0.0023148
        k(   32) = (   0.0000000   0.2500000   0.0000000), wk =   0.0023148
        k(   33) = (   0.0000000   0.2500000   0.0833333), wk =   0.0023148
        k(   34) = (   0.0000000   0.2500000   0.1666667), wk =   0.0023148
        k(   35) = (   0.0000000   0.2500000   0.2500000), wk =   0.0023148
        k(   36) = (   0.0000000   0.2500000   0.3333333), wk =   0.0023148
        k(   37) = (   0.0000000   0.2500000   0.4166667), wk =   0.0023148
        k(   38) = (   0.0000000   0.2500000  -0.5000000), wk =   0.0023148
        k(   39) = (   0.0000000   0.2500000  -0.4166667), wk =   0.0023148
        k(   40) = (   0.0000000   0.2500000  -0.3333333), wk =   0.0023148
        k(   41) = (   0.0000000   0.2500000  -0.2500000), wk =   0.0023148
        k(   42) = (   0.0000000   0.2500000  -0.1666667), wk =   0.0023148
        k(   43) = (   0.0000000   0.2500000  -0.0833333), wk =   0.0023148
        k(   44) = (   0.0000000   0.3333333   0.0000000), wk =   0.0023148
        k(   45) = (   0.0000000   0.3333333   0.0833333), wk =   0.0023148
        k(   46) = (   0.0000000   0.3333333   0.1666667), wk =   0.0023148
        k(   47) = (   0.0000000   0.3333333   0.2500000), wk =   0.0023148
        k(   48) = (   0.0000000   0.3333333   0.3333333), wk =   0.0023148
        k(   49) = (   0.0000000   0.3333333   0.4166667), wk =   0.0023148
        k(   50) = (   0.0000000   0.3333333  -0.5000000), wk =   0.0023148
        k(   51) = (   0.0000000   0.3333333  -0.4166667), wk =   0.0023148
        k(   52) = (   0.0000000   0.3333333  -0.3333333), wk =   0.0023148
        k(   53) = (   0.0000000   0.3333333  -0.2500000), wk =   0.0023148
        k(   54) = (   0.0000000   0.3333333  -0.1666667), wk =   0.0023148
        k(   55) = (   0.0000000   0.3333333  -0.0833333), wk =   0.0023148
        k(   56) = (   0.0000000   0.4166667   0.0000000), wk =   0.0023148
        k(   57) = (   0.0000000   0.4166667   0.0833333), wk =   0.0023148
        k(   58) = (   0.0000000   0.4166667   0.1666667), wk =   0.0023148
        k(   59) = (   0.0000000   0.4166667   0.2500000), wk =   0.0023148
        k(   60) = (   0.0000000   0.4166667   0.3333333), wk =   0.0023148
        k(   61) = (   0.0000000   0.4166667   0.4166667), wk =   0.0023148
        k(   62) = (   0.0000000   0.4166667  -0.5000000), wk =   0.0023148
        k(   63) = (   0.0000000   0.4166667  -0.4166667), wk =   0.0023148
        k(   64) = (   0.0000000   0.4166667  -0.3333333), wk =   0.0023148
        k(   65) = (   0.0000000   0.4166667  -0.2500000), wk =   0.0023148
        k(   66) = (   0.0000000   0.4166667  -0.1666667), wk =   0.0023148
        k(   67) = (   0.0000000   0.4166667  -0.0833333), wk =   0.0023148
        k(   68) = (   0.0000000  -0.5000000   0.0000000), wk =   0.0011574
        k(   69) = (   0.0000000  -0.5000000   0.0833333), wk =   0.0023148
        k(   70) = (   0.0000000  -0.5000000   0.1666667), wk =   0.0023148
        k(   71) = (   0.0000000  -0.5000000   0.2500000), wk =   0.0023148
        k(   72) = (   0.0000000  -0.5000000   0.3333333), wk =   0.0023148
        k(   73) = (   0.0000000  -0.5000000   0.4166667), wk =   0.0023148
        k(   74) = (   0.0000000  -0.5000000  -0.5000000), wk =   0.0011574
        k(   75) = (   0.0833333   0.0000000   0.0000000), wk =   0.0023148
        k(   76) = (   0.0833333   0.0000000   0.0833333), wk =   0.0023148
        k(   77) = (   0.0833333   0.0000000   0.1666667), wk =   0.0023148
        k(   78) = (   0.0833333   0.0000000   0.2500000), wk =   0.0023148
        k(   79) = (   0.0833333   0.0000000   0.3333333), wk =   0.0023148
        k(   80) = (   0.0833333   0.0000000   0.4166667), wk =   0.0023148
        k(   81) = (   0.0833333   0.0000000  -0.5000000), wk =   0.0023148
        k(   82) = (   0.0833333   0.0000000  -0.4166667), wk =   0.0023148
        k(   83) = (   0.0833333   0.0000000  -0.3333333), wk =   0.0023148
        k(   84) = (   0.0833333   0.0000000  -0.2500000), wk =   0.0023148
        k(   85) = (   0.0833333   0.0000000  -0.1666667), wk =   0.0023148
        k(   86) = (   0.0833333   0.0000000  -0.0833333), wk =   0.0023148
        k(   87) = (   0.0833333   0.0833333   0.0000000), wk =   0.0023148
        k(   88) = (   0.0833333   0.0833333   0.0833333), wk =   0.0023148
        k(   89) = (   0.0833333   0.0833333   0.1666667), wk =   0.0023148
        k(   90) = (   0.0833333   0.0833333   0.2500000), wk =   0.0023148
        k(   91) = (   0.0833333   0.0833333   0.3333333), wk =   0.0023148
        k(   92) = (   0.0833333   0.0833333   0.4166667), wk =   0.0023148
        k(   93) = (   0.0833333   0.0833333  -0.5000000), wk =   0.0023148
        k(   94) = (   0.0833333   0.0833333  -0.4166667), wk =   0.0023148
        k(   95) = (   0.0833333   0.0833333  -0.3333333), wk =   0.0023148
        k(   96) = (   0.0833333   0.0833333  -0.2500000), wk =   0.0023148
        k(   97) = (   0.0833333   0.0833333  -0.1666667), wk =   0.0023148
        k(   98) = (   0.0833333   0.0833333  -0.0833333), wk =   0.0023148
        k(   99) = (   0.0833333   0.1666667   0.0000000), wk =   0.0023148
        k(  100) = (   0.0833333   0.1666667   0.0833333), wk =   0.0023148
        k(  101) = (   0.0833333   0.1666667   0.1666667), wk =   0.0023148
        k(  102) = (   0.0833333   0.1666667   0.2500000), wk =   0.0023148
        k(  103) = (   0.0833333   0.1666667   0.3333333), wk =   0.0023148
        k(  104) = (   0.0833333   0.1666667   0.4166667), wk =   0.0023148
        k(  105) = (   0.0833333   0.1666667  -0.5000000), wk =   0.0023148
        k(  106) = (   0.0833333   0.1666667  -0.4166667), wk =   0.0023148
        k(  107) = (   0.0833333   0.1666667  -0.3333333), wk =   0.0023148
        k(  108) = (   0.0833333   0.1666667  -0.2500000), wk =   0.0023148
        k(  109) = (   0.0833333   0.1666667  -0.1666667), wk =   0.0023148
        k(  110) = (   0.0833333   0.1666667  -0.0833333), wk =   0.0023148
        k(  111) = (   0.0833333   0.2500000   0.0000000), wk =   0.0023148
        k(  112) = (   0.0833333   0.2500000   0.0833333), wk =   0.0023148
        k(  113) = (   0.0833333   0.2500000   0.1666667), wk =   0.0023148
        k(  114) = (   0.0833333   0.2500000   0.2500000), wk =   0.0023148
        k(  115) = (   0.0833333   0.2500000   0.3333333), wk =   0.0023148
        k(  116) = (   0.0833333   0.2500000   0.4166667), wk =   0.0023148
        k(  117) = (   0.0833333   0.2500000  -0.5000000), wk =   0.0023148
        k(  118) = (   0.0833333   0.2500000  -0.4166667), wk =   0.0023148
        k(  119) = (   0.0833333   0.2500000  -0.3333333), wk =   0.0023148
        k(  120) = (   0.0833333   0.2500000  -0.2500000), wk =   0.0023148
        k(  121) = (   0.0833333   0.2500000  -0.1666667), wk =   0.0023148
        k(  122) = (   0.0833333   0.2500000  -0.0833333), wk =   0.0023148
        k(  123) = (   0.0833333   0.3333333   0.0000000), wk =   0.0023148
        k(  124) = (   0.0833333   0.3333333   0.0833333), wk =   0.0023148
        k(  125) = (   0.0833333   0.3333333   0.1666667), wk =   0.0023148
        k(  126) = (   0.0833333   0.3333333   0.2500000), wk =   0.0023148
        k(  127) = (   0.0833333   0.3333333   0.3333333), wk =   0.0023148
        k(  128) = (   0.0833333   0.3333333   0.4166667), wk =   0.0023148
[...]

          k = 0.4167 0.5833-0.5833 (  1576 PWs)   bands (ev):

    -3.3975  -0.7224   4.4231   4.8312   8.2855   9.4729   9.9150  14.0621

     occupation numbers 
     1.0000   1.0000   1.0000   1.0000   0.0000   0.0000   0.0000   0.0000

          k = 0.3333 0.6667-0.6667 (  1585 PWs)   bands (ev):

    -3.2783  -0.4407   3.4087   4.4215   8.2335  10.3389  10.8539  12.6373

     occupation numbers 
     1.0000   1.0000   1.0000   1.0000   0.0000   0.0000   0.0000   0.0000

          k = 0.2500 0.7500-0.7500 (  1592 PWs)   bands (ev):

    -3.0529  -0.1834   2.6214   3.9838   7.6877  10.6362  11.9906  12.1622

     occupation numbers 
     1.0000   1.0000   1.0000   1.0000   0.0000   0.0000   0.0000   0.0000

          k = 0.1667 0.8333-0.8333 (  1596 PWs)   bands (ev):

    -2.7019  -0.3439   2.5094   3.6277   7.2183   8.8955  13.7024  13.7184

     occupation numbers 
     1.0000   1.0000   1.0000   1.0000   0.0000   0.0000   0.0000   0.0000

          k = 0.0833 0.9167-0.9167 (  1592 PWs)   bands (ev):

    -2.2183  -0.9352   2.9851   3.4012   6.9213   7.4993  15.3286  15.4153

     occupation numbers 
     1.0000   1.0000   1.0000   1.0000   0.0000   0.0000   0.0000   0.0000

          k = 1.0000 0.0000 0.0000 (  1588 PWs)   bands (ev):

    -1.6138  -1.6125   3.3232   3.3239   6.8539   6.8549  16.3756  16.3759

     occupation numbers 
     1.0000   1.0000   1.0000   1.0000   0.0000   0.0000   0.0000   0.0000

          k = 0.5833 0.5833-0.4167 (  1576 PWs)   bands (ev):

    -3.3975  -0.7225   4.4245   4.8298   8.2854   9.4716   9.9167  14.0624

     occupation numbers 
     1.0000   1.0000   1.0000   1.0000   0.0000   0.0000   0.0000   0.0000

          k = 0.5000 0.6667-0.5000 (  1581 PWs)   bands (ev):

    -3.5238  -0.5385   4.3245   4.9777   8.3157   9.5881   9.8032  14.1597

     occupation numbers 
     1.0000   1.0000   1.0000   1.0000   0.0000   0.0000   0.0000   0.0000

          k = 0.4167 0.7500-0.5833 (  1584 PWs)   bands (ev):

    -3.5419  -0.1929   3.6264   4.6460   8.8319   9.3993  10.7724  12.9731

     occupation numbers 
     1.0000   1.0000   1.0000   1.0000   0.0000   0.0000   0.0000   0.0000

          k = 0.3333 0.8333-0.6667 (  1581 PWs)   bands (ev):

    -3.4282   0.1720   2.9452   4.0591   8.4305  10.4190  11.0323  12.2463

     occupation numbers 
     1.0000   1.0000   1.0000   1.0000   0.0000   0.0000   0.0000   0.0000

          k = 0.2500 0.9167-0.7500 (  1591 PWs)   bands (ev):

    -3.1693   0.2041   2.7230   3.5437   7.9000   9.1876  12.0026  13.8292

     occupation numbers 
     1.0000   1.0000   1.0000   1.0000   0.0000   0.0000   0.0000   0.0000

          k = 0.1667 1.0000-0.8333 (  1594 PWs)   bands (ev):

    -2.7625  -0.2736   3.0384   3.2388   7.3869   7.8929  13.6842  15.0735

     occupation numbers 
     1.0000   1.0000   1.0000   1.0000   0.0000   0.0000   0.0000   0.0000

          k = 1.0833 0.0833 0.0833 (  1592 PWs)   bands (ev):

    -2.2183  -0.9353   2.9860   3.4005   6.9204   7.5002  15.3294  15.4153

     occupation numbers 
     1.0000   1.0000   1.0000   1.0000   0.0000   0.0000   0.0000   0.0000

          k = 1.0000 0.1667 0.0000 (  1602 PWs)   bands (ev):

    -1.5727  -1.5714   3.0014   3.0022   7.4830   7.4839  15.1579  15.1586

     occupation numbers 
     1.0000   1.0000   1.0000   1.0000   0.0000   0.0000   0.0000   0.0000

          k = 0.9167 0.2500-0.0833 (  1596 PWs)   bands (ev):

    -2.1189  -0.9243   2.3844   3.1941   7.6786   8.8194  13.3587  14.8523

     occupation numbers 
     1.0000   1.0000   1.0000   1.0000   0.0000   0.0000   0.0000   0.0000

          k = 0.8333 0.3333-0.1667 (  1585 PWs)   bands (ev):

    -2.5627  -0.5283   2.1880   3.5516   8.0541  10.4890  11.7074  13.7644

     occupation numbers 
     1.0000   1.0000   1.0000   1.0000   0.0000   0.0000   0.0000   0.0000

          k = 0.7500 0.4167-0.2500 (  1581 PWs)   bands (ev):

    -2.9134  -0.5575   2.6973   4.0393   8.5620  10.1475  12.1311  12.5043

     occupation numbers 
     1.0000   1.0000   1.0000   1.0000   0.0000   0.0000   0.0000   0.0000

          k = 0.6667 0.5000-0.3333 (  1580 PWs)   bands (ev):

    -3.1892  -0.7080   3.5934   4.5502   8.8170   9.3019  10.7278  14.2730

     occupation numbers 
     1.0000   1.0000   1.0000   1.0000   0.0000   0.0000   0.0000   0.0000

          k = 0.6667 0.6667-0.3333 (  1585 PWs)   bands (ev):

    -3.2783  -0.4409   3.4099   4.4204   8.2325  10.3391  10.8553  12.6378

     occupation numbers 
     1.0000   1.0000   1.0000   1.0000   0.0000   0.0000   0.0000   0.0000

          k = 0.5833 0.7500-0.4167 (  1584 PWs)   bands (ev):

    -3.5419  -0.1930   3.6275   4.6450   8.8322   9.3979  10.7740  12.9739

     occupation numbers 
     1.0000   1.0000   1.0000   1.0000   0.0000   0.0000   0.0000   0.0000

          k = 0.5000 0.8333-0.5000 (  1578 PWs)   bands (ev):

    -3.6758   0.1749   3.1267   4.9109   8.6668  10.3294  10.4626  13.4994

     occupation numbers 
     1.0000   1.0000   1.0000   1.0000   0.0000   0.0000   0.0000   0.0000

          k = 0.4167 0.9167-0.5833 (  1586 PWs)   bands (ev):

    -3.6623   0.5386   2.6405   4.5429   9.1947   9.8121  11.5115  11.9917

     occupation numbers 
     1.0000   1.0000   1.0000   1.0000   0.0000   0.0000   0.0000   0.0000

          k = 0.3333 1.0000-0.6667 (  1587 PWs)   bands (ev):

    -3.4932   0.5824   2.5760   3.8837   9.0503   9.8864  10.4787  13.3081

     occupation numbers 
     1.0000   1.0000   1.0000   1.0000   0.0000   0.0000   0.0000   0.0000

          k = 0.2500 1.0833-0.7500 (  1591 PWs)   bands (ev):

    -3.1693   0.2038   2.7242   3.5427   7.8991   9.1884  12.0025  13.8301

     occupation numbers 
     1.0000   1.0000   1.0000   1.0000   0.0000   0.0000   0.0000   0.0000

          k = 1.1667 0.1667 0.1667 (  1596 PWs)   bands (ev):

    -2.7019  -0.3442   2.5106   3.6269   7.2173   8.8964  13.7034  13.7185

     occupation numbers 
     1.0000   1.0000   1.0000   1.0000   0.0000   0.0000   0.0000   0.0000

          k = 1.0833 0.2500 0.0833 (  1596 PWs)   bands (ev):

    -2.1188  -0.9246   2.3853   3.1934   7.6776   8.8203  13.3596  14.8521

     occupation numbers 
     1.0000   1.0000   1.0000   1.0000   0.0000   0.0000   0.0000   0.0000

          k = 1.0000 0.3333 0.0000 (  1600 PWs)   bands (ev):

    -1.4840  -1.4826   2.4937   2.4945   8.9297   8.9307  12.9972  12.9979

     occupation numbers 
     1.0000   1.0000   1.0000   1.0000   0.0000   0.0000   0.0000   0.0000

          k = 0.9167 0.4167-0.0833 (  1590 PWs)   bands (ev):

    -2.0020  -0.9322   2.0417   2.8435   9.2090  10.4674  11.3496  12.7279

     occupation numbers 
     1.0000   1.0000   1.0000   1.0000   0.0000   0.0000   0.0000   0.0000

          k = 0.8333 0.5000-0.1667 (  1584 PWs)   bands (ev):

    -2.4802  -0.6449   2.1310   3.4012   9.5282   9.7820  12.3028  12.7626

     occupation numbers 
     1.0000   1.0000   1.0000   1.0000   0.0000   0.0000   0.0000   0.0000

          k = 0.7500 0.5833-0.2500 (  1581 PWs)   bands (ev):

    -2.9134  -0.5577   2.6978   4.0389   8.5608  10.1488  12.1316  12.5045

     occupation numbers 
     1.0000   1.0000   1.0000   1.0000   0.0000   0.0000   0.0000   0.0000

          k = 0.7500 0.7500-0.2500 (  1592 PWs)   bands (ev):

    -3.0529  -0.1837   2.6227   3.9829   7.6866  10.6374  11.9903  12.1634

     occupation numbers 
     1.0000   1.0000   1.0000   1.0000   0.0000   0.0000   0.0000   0.0000

          k = 0.6667 0.8333-0.3333 (  1581 PWs)   bands (ev):

    -3.4282   0.1717   2.9465   4.0580   8.4296  10.4195  11.0324  12.2477

     occupation numbers 
     1.0000   1.0000   1.0000   1.0000   0.0000   0.0000   0.0000   0.0000

          k = 0.5833 0.9167-0.4167 (  1586 PWs)   bands (ev):

    -3.6623   0.5385   2.6408   4.5426   9.1949   9.8112  11.5117  11.9931

     occupation numbers 
     1.0000   1.0000   1.0000   1.0000   0.0000   0.0000   0.0000   0.0000

          k = 0.5000 1.0000-0.5000 (  1576 PWs)   bands (ev):

    -3.7416   0.7362   2.3874   4.8793   8.6539  11.0396  11.3289  12.3714

     occupation numbers 
     1.0000   1.0000   1.0000   1.0000   0.0000   0.0000   0.0000   0.0000

          k = 0.4167 1.0833-0.5833 (  1586 PWs)   bands (ev):

    -3.6623   0.5385   2.6408   4.5426   9.1949   9.8112  11.5117  11.9931

     occupation numbers 
     1.0000   1.0000   1.0000   1.0000   0.0000   0.0000   0.0000   0.0000

          k = 0.3333 1.1667-0.6667 (  1581 PWs)   bands (ev):

    -3.4282   0.1717   2.9465   4.0580   8.4296  10.4195  11.0324  12.2477

     occupation numbers 
     1.0000   1.0000   1.0000   1.0000   0.0000   0.0000   0.0000   0.0000

          k = 1.2500 0.2500 0.2500 (  1592 PWs)   bands (ev):

    -3.0529  -0.1837   2.6227   3.9829   7.6866  10.6374  11.9903  12.1634

     occupation numbers 
     1.0000   1.0000   1.0000   1.0000   0.0000   0.0000   0.0000   0.0000

          k = 1.1667 0.3333 0.1667 (  1585 PWs)   bands (ev):

    -2.5626  -0.5286   2.1889   3.5511   8.0530  10.4902  11.7081  13.7646

     occupation numbers 
     1.0000   1.0000   1.0000   1.0000   0.0000   0.0000   0.0000   0.0000

          k = 1.0833 0.4167 0.0833 (  1590 PWs)   bands (ev):

    -2.0019  -0.9323   2.0422   2.8432   9.2079  10.4687  11.3501  12.7272

     occupation numbers 
     1.0000   1.0000   1.0000   1.0000   0.0000   0.0000   0.0000   0.0000

          k = 1.0000 0.5000 0.0000 (  1604 PWs)   bands (ev):

    -1.4358  -1.4344   2.2766   2.2775  10.4391  10.4407  11.2517  11.2518

     occupation numbers 
     1.0000   1.0000   1.0000   1.0000   0.0000   0.0000   0.0000   0.0000

          k = 0.9167 0.5833-0.0833 (  1590 PWs)   bands (ev):

    -2.0019  -0.9323   2.0422   2.8432   9.2079  10.4687  11.3501  12.7272

     occupation numbers 
     1.0000   1.0000   1.0000   1.0000   0.0000   0.0000   0.0000   0.0000

          k = 0.8333 0.6667-0.1667 (  1585 PWs)   bands (ev):

    -2.5626  -0.5286   2.1889   3.5511   8.0530  10.4902  11.7081  13.7646

     occupation numbers 
     1.0000   1.0000   1.0000   1.0000   0.0000   0.0000   0.0000   0.0000

          k = 0.8333 0.8333-0.1667 (  1596 PWs)   bands (ev):

    -2.7019  -0.3442   2.5106   3.6269   7.2173   8.8964  13.7034  13.7185

     occupation numbers 
     1.0000   1.0000   1.0000   1.0000   0.0000   0.0000   0.0000   0.0000

          k = 0.7500 0.9167-0.2500 (  1591 PWs)   bands (ev):

    -3.1693   0.2038   2.7242   3.5427   7.8991   9.1884  12.0025  13.8301

     occupation numbers 
     1.0000   1.0000   1.0000   1.0000   0.0000   0.0000   0.0000   0.0000

          k = 0.6667 1.0000-0.3333 (  1587 PWs)   bands (ev):

    -3.4932   0.5824   2.5760   3.8837   9.0503   9.8864  10.4787  13.3081

     occupation numbers 
     1.0000   1.0000   1.0000   1.0000   0.0000   0.0000   0.0000   0.0000

          k = 0.5833 1.0833-0.4167 (  1586 PWs)   bands (ev):

    -3.6623   0.5386   2.6405   4.5429   9.1947   9.8121  11.5115  11.9917

     occupation numbers 
     1.0000   1.0000   1.0000   1.0000   0.0000   0.0000   0.0000   0.0000

          k = 0.5000 1.1667-0.5000 (  1578 PWs)   bands (ev):

    -3.6758   0.1749   3.1267   4.9109   8.6668  10.3294  10.4626  13.4994

     occupation numbers 
     1.0000   1.0000   1.0000   1.0000   0.0000   0.0000   0.0000   0.0000

          k = 0.4167 1.2500-0.5833 (  1584 PWs)   bands (ev):

    -3.5419  -0.1930   3.6275   4.6450   8.8322   9.3979  10.7740  12.9739

     occupation numbers 
     1.0000   1.0000   1.0000   1.0000   0.0000   0.0000   0.0000   0.0000

          k = 1.3333 0.3333 0.3333 (  1585 PWs)   bands (ev):

    -3.2783  -0.4409   3.4099   4.4204   8.2325  10.3391  10.8553  12.6378

     occupation numbers 
     1.0000   1.0000   1.0000   1.0000   0.0000   0.0000   0.0000   0.0000

          k = 1.2500 0.4167 0.2500 (  1581 PWs)   bands (ev):

    -2.9134  -0.5577   2.6978   4.0389   8.5608  10.1488  12.1316  12.5045

     occupation numbers 
     1.0000   1.0000   1.0000   1.0000   0.0000   0.0000   0.0000   0.0000

          k = 1.1667 0.5000 0.1667 (  1584 PWs)   bands (ev):

    -2.4802  -0.6449   2.1310   3.4012   9.5282   9.7820  12.3028  12.7626

     occupation numbers 
     1.0000   1.0000   1.0000   1.0000   0.0000   0.0000   0.0000   0.0000

          k = 1.0833 0.5833 0.0833 (  1590 PWs)   bands (ev):

    -2.0020  -0.9322   2.0417   2.8435   9.2090  10.4674  11.3496  12.7279

     occupation numbers 
     1.0000   1.0000   1.0000   1.0000   0.0000   0.0000   0.0000   0.0000

          k = 1.0000 0.6667-0.0000 (  1600 PWs)   bands (ev):

    -1.4840  -1.4826   2.4937   2.4945   8.9297   8.9307  12.9972  12.9979

     occupation numbers 
     1.0000   1.0000   1.0000   1.0000   0.0000   0.0000   0.0000   0.0000

          k = 0.9167 0.7500-0.0833 (  1596 PWs)   bands (ev):

    -2.1188  -0.9246   2.3853   3.1934   7.6776   8.8203  13.3596  14.8521

     occupation numbers 
     1.0000   1.0000   1.0000   1.0000   0.0000   0.0000   0.0000   0.0000

          k = 0.9167 0.9167-0.0833 (  1592 PWs)   bands (ev):

    -2.2183  -0.9353   2.9860   3.4005   6.9204   7.5002  15.3294  15.4153

     occupation numbers 
     1.0000   1.0000   1.0000   1.0000   0.0000   0.0000   0.0000   0.0000

          k = 0.8333 1.0000-0.1667 (  1594 PWs)   bands (ev):

    -2.7625  -0.2736   3.0384   3.2388   7.3869   7.8929  13.6842  15.0735

     occupation numbers 
     1.0000   1.0000   1.0000   1.0000   0.0000   0.0000   0.0000   0.0000

          k = 0.7500 1.0833-0.2500 (  1591 PWs)   bands (ev):

    -3.1693   0.2041   2.7230   3.5437   7.9000   9.1876  12.0026  13.8292

     occupation numbers 
     1.0000   1.0000   1.0000   1.0000   0.0000   0.0000   0.0000   0.0000

          k = 0.6667 1.1667-0.3333 (  1581 PWs)   bands (ev):

    -3.4282   0.1720   2.9452   4.0591   8.4305  10.4190  11.0323  12.2463

     occupation numbers 
     1.0000   1.0000   1.0000   1.0000   0.0000   0.0000   0.0000   0.0000

          k = 0.5833 1.2500-0.4167 (  1584 PWs)   bands (ev):

    -3.5419  -0.1929   3.6264   4.6460   8.8319   9.3993  10.7724  12.9731

     occupation numbers 
     1.0000   1.0000   1.0000   1.0000   0.0000   0.0000   0.0000   0.0000

          k = 0.5000 1.3333-0.5000 (  1581 PWs)   bands (ev):

    -3.5238  -0.5385   4.3245   4.9777   8.3157   9.5881   9.8032  14.1597

     occupation numbers 
     1.0000   1.0000   1.0000   1.0000   0.0000   0.0000   0.0000   0.0000

          k = 1.4167 0.4167 0.4167 (  1576 PWs)   bands (ev):

    -3.3975  -0.7225   4.4245   4.8298   8.2854   9.4716   9.9167  14.0624

     occupation numbers 
     1.0000   1.0000   1.0000   1.0000   0.0000   0.0000   0.0000   0.0000

          k = 1.3333 0.5000 0.3333 (  1580 PWs)   bands (ev):

    -3.1892  -0.7080   3.5934   4.5502   8.8170   9.3019  10.7278  14.2730

     occupation numbers 
     1.0000   1.0000   1.0000   1.0000   0.0000   0.0000   0.0000   0.0000

          k = 1.2500 0.5833 0.2500 (  1581 PWs)   bands (ev):

    -2.9134  -0.5575   2.6973   4.0393   8.5620  10.1475  12.1311  12.5043

     occupation numbers 
     1.0000   1.0000   1.0000   1.0000   0.0000   0.0000   0.0000   0.0000

          k = 1.1667 0.6667 0.1667 (  1585 PWs)   bands (ev):

    -2.5627  -0.5283   2.1880   3.5516   8.0541  10.4890  11.7074  13.7644

     occupation numbers 
     1.0000   1.0000   1.0000   1.0000   0.0000   0.0000   0.0000   0.0000

          k = 1.0833 0.7500 0.0833 (  1596 PWs)   bands (ev):

    -2.1189  -0.9243   2.3844   3.1941   7.6786   8.8194  13.3587  14.8523

     occupation numbers 
     1.0000   1.0000   1.0000   1.0000   0.0000   0.0000   0.0000   0.0000

          k = 1.0000 0.8333 0.0000 (  1602 PWs)   bands (ev):

    -1.5727  -1.5714   3.0014   3.0022   7.4830   7.4839  15.1579  15.1586

     occupation numbers 
     1.0000   1.0000   1.0000   1.0000   0.0000   0.0000   0.0000   0.0000

          k = 0.0000 0.0000-1.0000 (  1588 PWs)   bands (ev):

    -1.6138  -1.6125   3.3232   3.3239   6.8539   6.8549  16.3756  16.3759

     occupation numbers 
     1.0000   1.0000   1.0000   1.0000   0.0000   0.0000   0.0000   0.0000

          k =-0.0833 0.0833-1.0833 (  1592 PWs)   bands (ev):

    -2.2183  -0.9352   2.9851   3.4012   6.9213   7.4993  15.3286  15.4153

     occupation numbers 
     1.0000   1.0000   1.0000   1.0000   0.0000   0.0000   0.0000   0.0000

          k =-0.1667 0.1667-1.1667 (  1596 PWs)   bands (ev):

    -2.7019  -0.3439   2.5094   3.6277   7.2183   8.8955  13.7024  13.7184

     occupation numbers 
     1.0000   1.0000   1.0000   1.0000   0.0000   0.0000   0.0000   0.0000

          k =-0.2500 0.2500-1.2500 (  1592 PWs)   bands (ev):

    -3.0529  -0.1834   2.6214   3.9838   7.6877  10.6362  11.9906  12.1622

     occupation numbers 
     1.0000   1.0000   1.0000   1.0000   0.0000   0.0000   0.0000   0.0000

          k =-0.3333 0.3333-1.3333 (  1585 PWs)   bands (ev):

    -3.2783  -0.4407   3.4087   4.4215   8.2335  10.3389  10.8539  12.6373

     occupation numbers 
     1.0000   1.0000   1.0000   1.0000   0.0000   0.0000   0.0000   0.0000

          k =-0.4167 0.4167-1.4167 (  1576 PWs)   bands (ev):

    -3.3975  -0.7224   4.4231   4.8312   8.2855   9.4729   9.9150  14.0621

     occupation numbers 
     1.0000   1.0000   1.0000   1.0000   0.0000   0.0000   0.0000   0.0000

          k = 0.5000-0.5000-0.5000 (  1568 PWs)   bands (ev):

    -3.4335  -0.8325   5.0115   5.0136   7.7805   9.5551   9.5576  13.8176

     occupation numbers 
     1.0000   1.0000   1.0000   1.0000   0.0000   0.0000   0.0000   0.0000

     the Fermi energy is     6.6638 ev

     Writing output data file silicon.save/

     init_run     :      0.16s CPU      0.16s WALL (       1 calls)
     electrons    :    123.45s CPU    124.93s WALL (       1 calls)

     Called by init_run:
     wfcinit      :      0.00s CPU      0.00s WALL (       1 calls)
     wfcinit:atom :      0.20s CPU      0.21s WALL (     868 calls)
     wfcinit:wfcr :      7.11s CPU      7.34s WALL (     868 calls)
     potinit      :      0.00s CPU      0.00s WALL (       1 calls)
     hinit0       :      0.14s CPU      0.14s WALL (       1 calls)

     Called by electrons:
     c_bands      :    123.42s CPU    124.90s WALL (       1 calls)
     v_of_rho     :      0.00s CPU      0.00s WALL (       1 calls)
     v_h          :      0.00s CPU      0.00s WALL (       1 calls)
     v_xc         :      0.00s CPU      0.00s WALL (       1 calls)

     Called by c_bands:
     init_us_2    :      0.18s CPU      0.18s WALL (     868 calls)
     cegterg      :    115.03s CPU    115.85s WALL (    1000 calls)

     Called by sum_band:

     Called by *egterg:
     h_psi        :     97.21s CPU     98.09s WALL (   17777 calls)
     g_psi        :      0.83s CPU      0.83s WALL (   15909 calls)
     cdiaghg      :      2.59s CPU      2.61s WALL (   16777 calls)
     cegterg:over :      9.02s CPU      9.08s WALL (   15909 calls)
     cegterg:upda :      6.73s CPU      6.79s WALL (   15909 calls)
     cegterg:last :      4.11s CPU      4.13s WALL (    3946 calls)

     Called by h_psi:
     h_psi:pot    :     96.32s CPU     97.17s WALL (   17777 calls)
     h_psi:calbec :      2.06s CPU      2.08s WALL (   17777 calls)
     vloc_psi     :     92.36s CPU     93.18s WALL (   17777 calls)
     add_vuspsi   :      1.83s CPU      1.85s WALL (   17777 calls)

     General routines
     calbec       :      2.02s CPU      2.04s WALL (   17777 calls)
     fft          :      0.00s CPU      0.01s WALL (       3 calls)
     fftw         :     81.39s CPU     82.15s WALL (  195398 calls)
     davcio       :      0.13s CPU      0.33s WALL (    1736 calls)

     Parallel routines

     PWSCF        :   2m 3.99s CPU   2m 5.66s WALL


   This run was terminated on:  20:44:42  30Aug2023            

=------------------------------------------------------------------------------=
   JOB DONE.
=------------------------------------------------------------------------------=
