
     Program PWSCF v.6.4.1 starts on 30Aug2023 at 16:41:23 

     This program is part of the open-source Quantum ESPRESSO suite
     for quantum simulation of materials; please cite
         "P. Giannozzi et al., J. Phys.:Condens. Matter 21 395502 (2009);
         "P. Giannozzi et al., J. Phys.:Condens. Matter 29 465901 (2017);
          URL http://www.quantum-espresso.org", 
     in publications or presentations arising from this work. More details at
     http://www.quantum-espresso.org/quote

     Parallel version (MPI), running on     1 processors

     MPI processes distributed on     1 nodes
     Reading input from si_relax.in

     Current dimensions of program PWSCF are:
     Max number of different atomic species (ntypx) = 10
     Max number of k-points (npk) =  40000
     Max angular momentum in pseudopotentials (lmaxx) =  3

     Subspace diagonalization in iterative solution of the eigenvalue problem:
     a serial algorithm will be used


     G-vector sticks info
     --------------------
     sticks:   dense  smooth     PW     G-vecs:    dense   smooth      PW
     Sum         433     433    151                 5961     5961    1139



     bravais-lattice index     =            2
     lattice parameter (alat)  =      10.2000  a.u.
     unit-cell volume          =     265.3020 (a.u.)^3
     number of atoms/cell      =            2
     number of atomic types    =            1
     number of electrons       =         8.00
     number of Kohn-Sham states=            4
     kinetic-energy cutoff     =      30.0000  Ry
     charge density cutoff     =     120.0000  Ry
     convergence threshold     =      1.0E-08
     mixing beta               =       0.7000
     number of iterations used =            8  plain     mixing
     Exchange-correlation      = SLA PZ NOGX NOGC ( 1  1  0  0 0 0)
     nstep                     =           50


     celldm(1)=  10.200000  celldm(2)=   0.000000  celldm(3)=   0.000000
     celldm(4)=   0.000000  celldm(5)=   0.000000  celldm(6)=   0.000000

     crystal axes: (cart. coord. in units of alat)
               a(1) = (  -0.500000   0.000000   0.500000 )  
               a(2) = (   0.000000   0.500000   0.500000 )  
               a(3) = (  -0.500000   0.500000   0.000000 )  

     reciprocal axes: (cart. coord. in units 2 pi/alat)
               b(1) = ( -1.000000 -1.000000  1.000000 )  
               b(2) = (  1.000000  1.000000  1.000000 )  
               b(3) = ( -1.000000  1.000000 -1.000000 )  


     PseudoPot. # 1 for Si read from file:
     /home/meyn/q-e-qe-7.1/pseudo/Si.pz-vbc.UPF
     MD5 check sum: 9f25e6ff280f3123e9b3a84715b2e9c9
     Pseudo is Norm-conserving, Zval =  4.0
     Generated by new atomic code, or converted to UPF format
     Using radial grid of  431 points,  2 beta functions with: 
                l(1) =   0
                l(2) =   1

     atomic species   valence    mass     pseudopotential
        Si             4.00    28.08550     Si( 1.00)

     48 Sym. Ops., with inversion, found (24 have fractional translation)



   Cartesian axes

     site n.     atom                  positions (alat units)
         1           Si  tau(   1) = (   0.0000000   0.0000000   0.0000000  )
         2           Si  tau(   2) = (   0.2500000   0.2500000   0.2500000  )

     number of k points=    28
                       cart. coord. in units 2pi/alat
        k(    1) = (  -0.0833333   0.0833333   0.0833333), wk =   0.0185185
        k(    2) = (  -0.2500000   0.2500000  -0.0833333), wk =   0.0555556
        k(    3) = (  -0.4166667   0.4166667  -0.2500000), wk =   0.0555556
        k(    4) = (   0.4166667  -0.4166667   0.5833333), wk =   0.0555556
        k(    5) = (   0.2500000  -0.2500000   0.4166667), wk =   0.0555556
        k(    6) = (   0.0833333  -0.0833333   0.2500000), wk =   0.0555556
        k(    7) = (  -0.0833333   0.4166667   0.0833333), wk =   0.0555556
        k(    8) = (  -0.2500000   0.5833333  -0.0833333), wk =   0.1111111
        k(    9) = (   0.5833333  -0.2500000   0.7500000), wk =   0.1111111
        k(   10) = (   0.4166667  -0.0833333   0.5833333), wk =   0.1111111
        k(   11) = (   0.2500000   0.0833333   0.4166667), wk =   0.1111111
        k(   12) = (  -0.0833333   0.7500000   0.0833333), wk =   0.0555556
        k(   13) = (   0.7500000  -0.0833333   0.9166667), wk =   0.1111111
        k(   14) = (   0.5833333   0.0833333   0.7500000), wk =   0.1111111
        k(   15) = (   0.4166667   0.2500000   0.5833333), wk =   0.1111111
        k(   16) = (  -0.0833333  -0.9166667   0.0833333), wk =   0.0555556
        k(   17) = (  -0.2500000  -0.7500000  -0.0833333), wk =   0.1111111
        k(   18) = (  -0.0833333  -0.5833333   0.0833333), wk =   0.0555556
        k(   19) = (  -0.2500000   0.2500000   0.2500000), wk =   0.0185185
        k(   20) = (  -0.4166667   0.4166667   0.0833333), wk =   0.0555556
        k(   21) = (   0.4166667  -0.4166667   0.9166667), wk =   0.0555556
        k(   22) = (   0.2500000  -0.2500000   0.7500000), wk =   0.0555556
        k(   23) = (  -0.2500000   0.5833333   0.2500000), wk =   0.0555556
        k(   24) = (   0.5833333  -0.2500000   1.0833333), wk =   0.1111111
        k(   25) = (   0.4166667  -0.0833333   0.9166667), wk =   0.1111111
        k(   26) = (  -0.2500000  -1.0833333   0.2500000), wk =   0.0555556
        k(   27) = (  -0.4166667   0.4166667   0.4166667), wk =   0.0185185
        k(   28) = (   0.4166667  -0.4166667   1.2500000), wk =   0.0555556

     Dense  grid:     5961 G-vectors     FFT dimensions: (  32,  32,  32)

     Estimated max dynamical RAM per process >       6.74 MB

     Initial potential from superposition of free atoms

     starting charge    7.99901, renormalised to    8.00000
     Starting wfcs are    8 randomized atomic wfcs

     total cpu time spent up to now is        0.2 secs

     Self-consistent Calculation

     iteration #  1     ecut=    30.00 Ry     beta= 0.70
     Davidson diagonalization with overlap
     ethr =  1.00E-02,  avg # of iterations =  2.0

     Threshold (ethr) on eigenvalues was too large:
     Diagonalizing with lowered threshold

     Davidson diagonalization with overlap
     ethr =  7.93E-04,  avg # of iterations =  1.0

     total cpu time spent up to now is        0.5 secs

     total energy              =     -15.84879543 Ry
     Harris-Foulkes estimate   =     -15.86980091 Ry
     estimated scf accuracy    <       0.06187513 Ry

     iteration #  2     ecut=    30.00 Ry     beta= 0.70
     Davidson diagonalization with overlap
     ethr =  7.73E-04,  avg # of iterations =  1.0

     total cpu time spent up to now is        0.6 secs

     total energy              =     -15.85189894 Ry
     Harris-Foulkes estimate   =     -15.85219240 Ry
     estimated scf accuracy    <       0.00215116 Ry

     iteration #  3     ecut=    30.00 Ry     beta= 0.70
     Davidson diagonalization with overlap
     ethr =  2.69E-05,  avg # of iterations =  2.6

     total cpu time spent up to now is        0.8 secs

     total energy              =     -15.85236086 Ry
     Harris-Foulkes estimate   =     -15.85239446 Ry
     estimated scf accuracy    <       0.00007528 Ry

     iteration #  4     ecut=    30.00 Ry     beta= 0.70
     Davidson diagonalization with overlap
     ethr =  9.41E-07,  avg # of iterations =  2.1

     total cpu time spent up to now is        1.0 secs

     total energy              =     -15.85237831 Ry
     Harris-Foulkes estimate   =     -15.85238247 Ry
     estimated scf accuracy    <       0.00000895 Ry

     iteration #  5     ecut=    30.00 Ry     beta= 0.70
     Davidson diagonalization with overlap
     ethr =  1.12E-07,  avg # of iterations =  2.1

     total cpu time spent up to now is        1.1 secs

     total energy              =     -15.85237971 Ry
     Harris-Foulkes estimate   =     -15.85237974 Ry
     estimated scf accuracy    <       0.00000009 Ry

     iteration #  6     ecut=    30.00 Ry     beta= 0.70
     Davidson diagonalization with overlap
     ethr =  1.14E-09,  avg # of iterations =  2.6

     total cpu time spent up to now is        1.3 secs

     End of self-consistent calculation

          k =-0.0833 0.0833 0.0833 (   731 PWs)   bands (ev):

    -5.7291   5.3723   6.0830   6.0830

          k =-0.2500 0.2500-0.0833 (   739 PWs)   bands (ev):

    -5.2429   3.2806   4.8176   5.8730

          k =-0.4167 0.4167-0.2500 (   745 PWs)   bands (ev):

    -4.1227   0.4624   4.3535   5.2239

          k = 0.4167-0.4167 0.5833 (   743 PWs)   bands (ev):

    -3.3945  -0.7192   4.4271   4.8333

          k = 0.2500-0.2500 0.4167 (   742 PWs)   bands (ev):

    -4.5465   1.3283   4.8906   4.9369

          k = 0.0833-0.0833 0.2500 (   731 PWs)   bands (ev):

    -5.4838   4.3062   5.4201   5.6220

          k =-0.0833 0.4167 0.0833 (   736 PWs)   bands (ev):

    -4.9972   3.1175   4.6668   4.6739

          k =-0.2500 0.5833-0.0833 (   737 PWs)   bands (ev):

    -4.0664   1.2568   3.3060   4.2788

          k = 0.5833-0.2500 0.7500 (   733 PWs)   bands (ev):

    -2.9102  -0.5536   2.7004   4.0420

          k = 0.4167-0.0833 0.5833 (   739 PWs)   bands (ev):

    -3.6597   0.5436   2.6435   4.5451

          k = 0.2500 0.0833 0.4167 (   737 PWs)   bands (ev):

    -4.7663   2.2535   4.0224   5.2362

          k =-0.0833 0.7500 0.0833 (   735 PWs)   bands (ev):

    -3.3421   0.4407   3.2653   3.6230

          k = 0.7500-0.0833 0.9167 (   736 PWs)   bands (ev):

    -2.1153  -0.9199   2.3869   3.1962

          k = 0.5833 0.0833 0.7500 (   730 PWs)   bands (ev):

    -2.4824  -0.5996   1.8917   3.7580

          k = 0.4167 0.2500 0.5833 (   737 PWs)   bands (ev):

    -3.5391  -0.1890   3.6308   4.6478

          k =-0.0833-0.9167 0.0833 (   736 PWs)   bands (ev):

    -2.2148  -0.9308   2.9878   3.4030

          k =-0.2500-0.7500-0.0833 (   737 PWs)   bands (ev):

    -3.1665   0.2094   2.7261   3.5454

          k =-0.0833-0.5833 0.0833 (   732 PWs)   bands (ev):

    -4.2781   1.8197   3.8286   4.0543

          k =-0.2500 0.2500 0.2500 (   745 PWs)   bands (ev):

    -5.0081   2.2764   5.4586   5.4586

          k =-0.4167 0.4167 0.0833 (   740 PWs)   bands (ev):

    -4.3134   1.3529   3.2694   5.2884

          k = 0.4167-0.4167 0.9167 (   734 PWs)   bands (ev):

    -3.1006  -0.0991   2.1249   4.4812

          k = 0.2500-0.2500 0.7500 (   735 PWs)   bands (ev):

    -3.0499  -0.1789   2.6247   3.9858

          k =-0.2500 0.5833 0.2500 (   738 PWs)   bands (ev):

    -3.8782   0.5229   3.7637   4.3678

          k = 0.5833-0.2500 1.0833 (   732 PWs)   bands (ev):

    -2.8502  -0.1963   2.2255   3.5378

          k = 0.4167-0.0833 0.9167 (   732 PWs)   bands (ev):

    -1.9981  -0.9277   2.0438   2.8458

          k =-0.2500-1.0833 0.2500 (   732 PWs)   bands (ev):

    -2.2117  -0.8445   1.9139   3.7868

          k =-0.4167 0.4167 0.4167 (   739 PWs)   bands (ev):

    -3.7796  -0.3068   5.0655   5.0655

          k = 0.4167-0.4167 1.2500 (   737 PWs)   bands (ev):

    -3.1553  -0.6033   3.1926   4.6119

     highest occupied level (ev):     6.0830

!    total energy              =     -15.85237974 Ry
     Harris-Foulkes estimate   =     -15.85237974 Ry
     estimated scf accuracy    <          1.6E-09 Ry

     The total energy is the sum of the following terms:

     one-electron contribution =       4.78605653 Ry
     hartree contribution      =       1.07828602 Ry
     xc contribution           =      -4.81696369 Ry
     ewald contribution        =     -16.89975860 Ry

     convergence has been achieved in   6 iterations

     Forces acting on atoms (cartesian axes, Ry/au):

     atom    1 type  1   force =    -0.00000000   -0.00000000    0.00000000
     atom    2 type  1   force =     0.00000000    0.00000000   -0.00000000

     Total force =     0.000000     Total SCF correction =     0.000000


     Computing stress (Cartesian axis) and pressure

          total   stress  (Ry/bohr**3)                   (kbar)     P=    0.88
   0.00000600   0.00000000   0.00000000          0.88      0.00      0.00
   0.00000000   0.00000600  -0.00000000          0.00      0.88     -0.00
   0.00000000  -0.00000000   0.00000600          0.00     -0.00      0.88


     BFGS Geometry Optimization

     number of scf cycles    =   1
     number of bfgs steps    =   0

     enthalpy new            =     -15.8523797371 Ry

     new trust radius        =       0.0004883584 bohr
ibrav =      2
 celldm(1) =     10.20152911
Input lattice vectors:
    -0.50007496    -0.00000000     0.50007496
     0.00000000     0.50007496     0.50007496
    -0.50007496     0.50007496    -0.00000000
New lattice vectors in INITIAL alat:
    -0.50007496     0.00000000     0.50007496
     0.00000000     0.50007496     0.50007496
    -0.50007496     0.50007496     0.00000000
New lattice vectors in NEW alat (for information only):
    -0.50000000     0.00000000     0.50000000
     0.00000000     0.50000000     0.50000000
    -0.50000000     0.50000000     0.00000000
Discrepancy in bohr =     0.000000    0.000000    0.000000
     new conv_thr            =       0.0000000100 Ry

     new unit-cell volume =    265.42133 a.u.^3 (    39.33138 Ang^3 )
     density =      2.37149 g/cm^3

CELL_PARAMETERS (alat= 10.20000000)
  -0.500074956   0.000000000   0.500074956
   0.000000000   0.500074956   0.500074956
  -0.500074956   0.500074956   0.000000000

ATOMIC_POSITIONS (alat)
Si       0.000000000   0.000000000   0.000000000    0   0   0
Si       0.250037478   0.250037478   0.250037478    0   0   0



     Writing output data file silicon.save/
     NEW-OLD atomic charge density approx. for the potential
     extrapolated charge    8.00360, renormalised to    8.00000

     total cpu time spent up to now is        1.6 secs

     Self-consistent Calculation

     iteration #  1     ecut=    30.00 Ry     beta= 0.70
     Davidson diagonalization with overlap
     ethr =  1.00E-06,  avg # of iterations =  1.0

     Threshold (ethr) on eigenvalues was too large:
     Diagonalizing with lowered threshold

     Davidson diagonalization with overlap
     ethr =  9.05E-10,  avg # of iterations =  2.5

     total cpu time spent up to now is        1.9 secs

     total energy              =     -15.85238012 Ry
     Harris-Foulkes estimate   =     -15.85423394 Ry
     estimated scf accuracy    <       0.00000008 Ry

     iteration #  2     ecut=    30.00 Ry     beta= 0.70
     Davidson diagonalization with overlap
     ethr =  1.00E-09,  avg # of iterations =  3.1

     total cpu time spent up to now is        2.1 secs

     total energy              =     -15.85238027 Ry
     Harris-Foulkes estimate   =     -15.85238029 Ry
     estimated scf accuracy    <       0.00000007 Ry

     iteration #  3     ecut=    30.00 Ry     beta= 0.70
     Davidson diagonalization with overlap
     ethr =  8.41E-10,  avg # of iterations =  1.0

     total cpu time spent up to now is        2.2 secs

     total energy              =     -15.85238026 Ry
     Harris-Foulkes estimate   =     -15.85238027 Ry
     estimated scf accuracy    <       0.00000002 Ry

     iteration #  4     ecut=    30.00 Ry     beta= 0.70
     Davidson diagonalization with overlap
     ethr =  2.20E-10,  avg # of iterations =  2.0

     total cpu time spent up to now is        2.4 secs

     End of self-consistent calculation

          k =-0.0833 0.0833 0.0833 (   731 PWs)   bands (ev):

    -5.7307   5.3678   6.0785   6.0785

          k =-0.2500 0.2500-0.0833 (   739 PWs)   bands (ev):

    -5.2446   3.2764   4.8136   5.8685

          k =-0.4166 0.4166-0.2500 (   745 PWs)   bands (ev):

    -4.1249   0.4592   4.3495   5.2196

          k = 0.4166-0.4166 0.5832 (   743 PWs)   bands (ev):

    -3.3971  -0.7217   4.4230   4.8292

          k = 0.2500-0.2500 0.4166 (   742 PWs)   bands (ev):

    -4.5485   1.3248   4.8865   4.9326

          k = 0.0833-0.0833 0.2500 (   731 PWs)   bands (ev):

    -5.4855   4.3018   5.4159   5.6175

          k =-0.0833 0.4166 0.0833 (   736 PWs)   bands (ev):

    -4.9990   3.1130   4.6628   4.6700

          k =-0.2500 0.5832-0.0833 (   737 PWs)   bands (ev):

    -4.0686   1.2529   3.3025   4.2751

          k = 0.5832-0.2500 0.7499 (   733 PWs)   bands (ev):

    -2.9130  -0.5566   2.6971   4.0383

          k = 0.4166-0.0833 0.5832 (   739 PWs)   bands (ev):

    -3.6621   0.5400   2.6404   4.5412

          k = 0.2500 0.0833 0.4166 (   737 PWs)   bands (ev):

    -4.7682   2.2495   4.0187   5.2319

          k =-0.0833 0.7499 0.0833 (   735 PWs)   bands (ev):

    -3.3446   0.4368   3.2620   3.6194

          k = 0.7499-0.0833 0.9165 (   736 PWs)   bands (ev):

    -2.1183  -0.9233   2.3840   3.1929

          k = 0.5832 0.0833 0.7499 (   730 PWs)   bands (ev):

    -2.4854  -0.6029   1.8890   3.7544

          k = 0.4166 0.2500 0.5832 (   737 PWs)   bands (ev):

    -3.5416  -0.1920   3.6270   4.6438

          k =-0.0833-0.9165 0.0833 (   736 PWs)   bands (ev):

    -2.2177  -0.9342   2.9846   3.3995

          k =-0.2500-0.7499-0.0833 (   737 PWs)   bands (ev):

    -3.1690   0.2056   2.7230   3.5420

          k =-0.0833-0.5832 0.0833 (   732 PWs)   bands (ev):

    -4.2802   1.8154   3.8250   4.0506

          k =-0.2500 0.2500 0.2500 (   745 PWs)   bands (ev):

    -5.0099   2.2727   5.4543   5.4543

          k =-0.4166 0.4166 0.0833 (   740 PWs)   bands (ev):

    -4.3155   1.3492   3.2660   5.2842

          k = 0.4166-0.4166 0.9165 (   734 PWs)   bands (ev):

    -3.1033  -0.1024   2.1220   4.4773

          k = 0.2500-0.2500 0.7499 (   735 PWs)   bands (ev):

    -3.0526  -0.1822   2.6215   3.9821

          k =-0.2500 0.5832 0.2500 (   738 PWs)   bands (ev):

    -3.8805   0.5196   3.7599   4.3639

          k = 0.5832-0.2500 1.0832 (   732 PWs)   bands (ev):

    -2.8530  -0.1998   2.2226   3.5344

          k = 0.4166-0.0833 0.9165 (   732 PWs)   bands (ev):

    -2.0013  -0.9311   2.0412   2.8427

          k =-0.2500-1.0832 0.2500 (   732 PWs)   bands (ev):

    -2.2147  -0.8478   1.9113   3.7832

          k =-0.4166 0.4166 0.4166 (   739 PWs)   bands (ev):

    -3.7820  -0.3096   5.0613   5.0613

          k = 0.4166-0.4166 1.2498 (   737 PWs)   bands (ev):

    -3.1580  -0.6061   3.1890   4.6079

     highest occupied level (ev):     6.0785

!    total energy              =     -15.85238027 Ry
     Harris-Foulkes estimate   =     -15.85238027 Ry
     estimated scf accuracy    <          1.8E-09 Ry

     The total energy is the sum of the following terms:

     one-electron contribution =       4.78269175 Ry
     hartree contribution      =       1.07860954 Ry
     xc contribution           =      -4.81645606 Ry
     ewald contribution        =     -16.89722549 Ry

     convergence has been achieved in   4 iterations

     Forces acting on atoms (cartesian axes, Ry/au):

     atom    1 type  1   force =     0.00000000   -0.00000000   -0.00000000
     atom    2 type  1   force =    -0.00000000    0.00000000    0.00000000

     Total force =     0.000000     Total SCF correction =     0.000000


     Computing stress (Cartesian axis) and pressure

          total   stress  (Ry/bohr**3)                   (kbar)     P=    0.42
   0.00000285   0.00000000  -0.00000000          0.42      0.00     -0.00
   0.00000000   0.00000285   0.00000000          0.00      0.42      0.00
  -0.00000000   0.00000000   0.00000285         -0.00      0.00      0.42

ibrav =      2
 celldm(1) =     10.20152911
Input lattice vectors:
    -0.50007496     0.00000000     0.50007496
     0.00000000     0.50007496     0.50007496
    -0.50007496     0.50007496     0.00000000
New lattice vectors in INITIAL alat:
    -0.50007496     0.00000000     0.50007496
     0.00000000     0.50007496     0.50007496
    -0.50007496     0.50007496     0.00000000
New lattice vectors in NEW alat (for information only):
    -0.50000000     0.00000000     0.50000000
     0.00000000     0.50000000     0.50000000
    -0.50000000     0.50000000     0.00000000
Discrepancy in bohr =     0.000000    0.000000    0.000000

     bfgs converged in   2 scf cycles and   1 bfgs steps
     (criteria: energy <  1.0E-05 Ry, force <  1.0E-04Ry/Bohr, cell <  5.0E-01kbar)

     End of BFGS Geometry Optimization

     Final enthalpy =     -15.8523802650 Ry
Begin final coordinates
     new unit-cell volume =    265.42133 a.u.^3 (    39.33138 Ang^3 )
     density =      2.37149 g/cm^3

CELL_PARAMETERS (alat= 10.20000000)
  -0.500074956   0.000000000   0.500074956
   0.000000000   0.500074956   0.500074956
  -0.500074956   0.500074956   0.000000000

ATOMIC_POSITIONS (alat)
Si       0.000000000   0.000000000   0.000000000    0   0   0
Si       0.250037478   0.250037478   0.250037478    0   0   0
End final coordinates



     Writing output data file silicon.save/

     A final scf calculation at the relaxed structure.
     The G-vectors are recalculated for the final unit cell
     Results may differ from those at the preceding step.

     G-vector sticks info
     --------------------
     sticks:   dense  smooth     PW     G-vecs:    dense   smooth      PW
     Sum         433     433    151                 5961     5961    1139



     bravais-lattice index     =            2
     lattice parameter (alat)  =      10.2000  a.u.
     unit-cell volume          =     265.4213 (a.u.)^3
     number of atoms/cell      =            2
     number of atomic types    =            1
     number of electrons       =         8.00
     number of Kohn-Sham states=            4
     kinetic-energy cutoff     =      30.0000  Ry
     charge density cutoff     =     120.0000  Ry
     convergence threshold     =      1.0E-08
     mixing beta               =       0.7000
     number of iterations used =            8  plain     mixing
     Exchange-correlation      = SLA PZ NOGX NOGC ( 1  1  0  0 0 0)

     celldm(1)=  10.200000  celldm(2)=   0.000000  celldm(3)=   0.000000
     celldm(4)=   0.000000  celldm(5)=   0.000000  celldm(6)=   0.000000

     crystal axes: (cart. coord. in units of alat)
               a(1) = (  -0.500075   0.000000   0.500075 )  
               a(2) = (   0.000000   0.500075   0.500075 )  
               a(3) = (  -0.500075   0.500075   0.000000 )  

     reciprocal axes: (cart. coord. in units 2 pi/alat)
               b(1) = ( -0.999850 -0.999850  0.999850 )  
               b(2) = (  0.999850  0.999850  0.999850 )  
               b(3) = ( -0.999850  0.999850 -0.999850 )  


     PseudoPot. # 1 for Si read from file:
     /home/meyn/q-e-qe-7.1/pseudo/Si.pz-vbc.UPF
     MD5 check sum: 9f25e6ff280f3123e9b3a84715b2e9c9
     Pseudo is Norm-conserving, Zval =  4.0
     Generated by new atomic code, or converted to UPF format
     Using radial grid of  431 points,  2 beta functions with: 
                l(1) =   0
                l(2) =   1

     atomic species   valence    mass     pseudopotential
        Si             4.00    28.08550     Si( 1.00)

     48 Sym. Ops., with inversion, found (24 have fractional translation)



   Cartesian axes

     site n.     atom                  positions (alat units)
         1           Si  tau(   1) = (   0.0000000   0.0000000   0.0000000  )
         2           Si  tau(   2) = (   0.2500375   0.2500375   0.2500375  )

     number of k points=    28
                       cart. coord. in units 2pi/alat
        k(    1) = (  -0.0833208   0.0833208   0.0833208), wk =   0.0185185
        k(    2) = (  -0.2499625   0.2499625  -0.0833208), wk =   0.0555556
        k(    3) = (  -0.4166042   0.4166042  -0.2499625), wk =   0.0555556
        k(    4) = (   0.4166042  -0.4166042   0.5832459), wk =   0.0555556
        k(    5) = (   0.2499625  -0.2499625   0.4166042), wk =   0.0555556
        k(    6) = (   0.0833208  -0.0833208   0.2499625), wk =   0.0555556
        k(    7) = (  -0.0833208   0.4166042   0.0833208), wk =   0.0555556
        k(    8) = (  -0.2499625   0.5832459  -0.0833208), wk =   0.1111111
        k(    9) = (   0.5832459  -0.2499625   0.7498876), wk =   0.1111111
        k(   10) = (   0.4166042  -0.0833208   0.5832459), wk =   0.1111111
        k(   11) = (   0.2499625   0.0833208   0.4166042), wk =   0.1111111
        k(   12) = (  -0.0833208   0.7498876   0.0833208), wk =   0.0555556
        k(   13) = (   0.7498876  -0.0833208   0.9165293), wk =   0.1111111
        k(   14) = (   0.5832459   0.0833208   0.7498876), wk =   0.1111111
        k(   15) = (   0.4166042   0.2499625   0.5832459), wk =   0.1111111
        k(   16) = (  -0.0833208  -0.9165293   0.0833208), wk =   0.0555556
        k(   17) = (  -0.2499625  -0.7498876  -0.0833208), wk =   0.1111111
        k(   18) = (  -0.0833208  -0.5832459   0.0833208), wk =   0.0555556
        k(   19) = (  -0.2499625   0.2499625   0.2499625), wk =   0.0185185
        k(   20) = (  -0.4166042   0.4166042   0.0833208), wk =   0.0555556
        k(   21) = (   0.4166042  -0.4166042   0.9165293), wk =   0.0555556
        k(   22) = (   0.2499625  -0.2499625   0.7498876), wk =   0.0555556
        k(   23) = (  -0.2499625   0.5832459   0.2499625), wk =   0.0555556
        k(   24) = (   0.5832459  -0.2499625   1.0831710), wk =   0.1111111
        k(   25) = (   0.4166042  -0.0833208   0.9165293), wk =   0.1111111
        k(   26) = (  -0.2499625  -1.0831710   0.2499625), wk =   0.0555556
        k(   27) = (  -0.4166042   0.4166042   0.4166042), wk =   0.0185185
        k(   28) = (   0.4166042  -0.4166042   1.2498126), wk =   0.0555556

     Dense  grid:     5961 G-vectors     FFT dimensions: (  32,  32,  32)

     Estimated max dynamical RAM per process >       6.78 MB

     Initial potential from superposition of free atoms

     starting charge    7.99901, renormalised to    8.00000
     Starting wfcs are    8 randomized atomic wfcs

     total cpu time spent up to now is        2.7 secs

     Self-consistent Calculation

     iteration #  1     ecut=    30.00 Ry     beta= 0.70
     Davidson diagonalization with overlap
     ethr =  1.00E-06,  avg # of iterations =  6.2

     total cpu time spent up to now is        3.0 secs

     total energy              =     -15.84852408 Ry
     Harris-Foulkes estimate   =     -15.86997233 Ry
     estimated scf accuracy    <       0.06298628 Ry

     iteration #  2     ecut=    30.00 Ry     beta= 0.70
     Davidson diagonalization with overlap
     ethr =  7.87E-04,  avg # of iterations =  1.0

     total cpu time spent up to now is        3.2 secs

     total energy              =     -15.85186827 Ry
     Harris-Foulkes estimate   =     -15.85213173 Ry
     estimated scf accuracy    <       0.00209480 Ry

     iteration #  3     ecut=    30.00 Ry     beta= 0.70
     Davidson diagonalization with overlap
     ethr =  2.62E-05,  avg # of iterations =  2.7

     total cpu time spent up to now is        3.3 secs

     total energy              =     -15.85237037 Ry
     Harris-Foulkes estimate   =     -15.85239884 Ry
     estimated scf accuracy    <       0.00006691 Ry

     iteration #  4     ecut=    30.00 Ry     beta= 0.70
     Davidson diagonalization with overlap
     ethr =  8.36E-07,  avg # of iterations =  2.0

     total cpu time spent up to now is        3.5 secs

     total energy              =     -15.85238377 Ry
     Harris-Foulkes estimate   =     -15.85238603 Ry
     estimated scf accuracy    <       0.00000555 Ry

     iteration #  5     ecut=    30.00 Ry     beta= 0.70
     Davidson diagonalization with overlap
     ethr =  6.94E-08,  avg # of iterations =  2.0

     total cpu time spent up to now is        3.6 secs

     total energy              =     -15.85238455 Ry
     Harris-Foulkes estimate   =     -15.85238458 Ry
     estimated scf accuracy    <       0.00000006 Ry

     iteration #  6     ecut=    30.00 Ry     beta= 0.70
     Davidson diagonalization with overlap
     ethr =  7.39E-10,  avg # of iterations =  2.7

     total cpu time spent up to now is        3.8 secs

     End of self-consistent calculation

          k =-0.0833 0.0833 0.0833 (   731 PWs)   bands (ev):

    -5.7307   5.3677   6.0784   6.0784

          k =-0.2500 0.2500-0.0833 (   739 PWs)   bands (ev):

    -5.2447   3.2764   4.8135   5.8685

          k =-0.4166 0.4166-0.2500 (   745 PWs)   bands (ev):

    -4.1249   0.4592   4.3495   5.2195

          k = 0.4166-0.4166 0.5832 (   743 PWs)   bands (ev):

    -3.3972  -0.7218   4.4229   4.8291

          k = 0.2500-0.2500 0.4166 (   742 PWs)   bands (ev):

    -4.5486   1.3247   4.8865   4.9326

          k = 0.0833-0.0833 0.2500 (   734 PWs)   bands (ev):

    -5.4855   4.3017   5.4159   5.6174

          k =-0.0833 0.4166 0.0833 (   736 PWs)   bands (ev):

    -4.9991   3.1129   4.6627   4.6699

          k =-0.2500 0.5832-0.0833 (   739 PWs)   bands (ev):

    -4.0687   1.2528   3.3025   4.2750

          k = 0.5832-0.2500 0.7499 (   733 PWs)   bands (ev):

    -2.9130  -0.5566   2.6970   4.0383

          k = 0.4166-0.0833 0.5832 (   739 PWs)   bands (ev):

    -3.6621   0.5400   2.6403   4.5412

          k = 0.2500 0.0833 0.4166 (   737 PWs)   bands (ev):

    -4.7683   2.2494   4.0186   5.2318

          k =-0.0833 0.7499 0.0833 (   738 PWs)   bands (ev):

    -3.3446   0.4366   3.2619   3.6194

          k = 0.7499-0.0833 0.9165 (   737 PWs)   bands (ev):

    -2.1183  -0.9234   2.3840   3.1928

          k = 0.5832 0.0833 0.7499 (   732 PWs)   bands (ev):

    -2.4855  -0.6030   1.8890   3.7544

          k = 0.4166 0.2500 0.5832 (   739 PWs)   bands (ev):

    -3.5417  -0.1920   3.6269   4.6438

          k =-0.0833-0.9165 0.0833 (   736 PWs)   bands (ev):

    -2.2178  -0.9343   2.9845   3.3995

          k =-0.2500-0.7499-0.0833 (   737 PWs)   bands (ev):

    -3.1691   0.2056   2.7229   3.5420

          k =-0.0833-0.5832 0.0833 (   732 PWs)   bands (ev):

    -4.2802   1.8153   3.8249   4.0506

          k =-0.2500 0.2500 0.2500 (   745 PWs)   bands (ev):

    -5.0100   2.2726   5.4543   5.4543

          k =-0.4166 0.4166 0.0833 (   740 PWs)   bands (ev):

    -4.3156   1.3491   3.2659   5.2841

          k = 0.4166-0.4166 0.9165 (   734 PWs)   bands (ev):

    -3.1033  -0.1025   2.1219   4.4772

          k = 0.2500-0.2500 0.7499 (   735 PWs)   bands (ev):

    -3.0526  -0.1823   2.6215   3.9821

          k =-0.2500 0.5832 0.2500 (   738 PWs)   bands (ev):

    -3.8806   0.5195   3.7598   4.3639

          k = 0.5832-0.2500 1.0832 (   736 PWs)   bands (ev):

    -2.8531  -0.2000   2.2225   3.5343

          k = 0.4166-0.0833 0.9165 (   732 PWs)   bands (ev):

    -2.0013  -0.9312   2.0411   2.8427

          k =-0.2500-1.0832 0.2500 (   732 PWs)   bands (ev):

    -2.2148  -0.8479   1.9113   3.7831

          k =-0.4166 0.4166 0.4166 (   739 PWs)   bands (ev):

    -3.7821  -0.3096   5.0612   5.0612

          k = 0.4166-0.4166 1.2498 (   741 PWs)   bands (ev):

    -3.1581  -0.6062   3.1889   4.6078

     highest occupied level (ev):     6.0784

!    total energy              =     -15.85238457 Ry
     Harris-Foulkes estimate   =     -15.85238457 Ry
     estimated scf accuracy    <          6.9E-10 Ry

     The total energy is the sum of the following terms:

     one-electron contribution =       4.78267384 Ry
     hartree contribution      =       1.07863071 Ry
     xc contribution           =      -4.81646362 Ry
     ewald contribution        =     -16.89722549 Ry

     convergence has been achieved in   6 iterations

     Forces acting on atoms (cartesian axes, Ry/au):

     atom    1 type  1   force =    -0.00000000   -0.00000000    0.00000000
     atom    2 type  1   force =     0.00000000    0.00000000   -0.00000000

     Total force =     0.000000     Total SCF correction =     0.000000


     Computing stress (Cartesian axis) and pressure

          total   stress  (Ry/bohr**3)                   (kbar)     P=    0.44
   0.00000298  -0.00000000  -0.00000000          0.44     -0.00     -0.00
  -0.00000000   0.00000298   0.00000000         -0.00      0.44      0.00
  -0.00000000   0.00000000   0.00000298         -0.00      0.00      0.44


     Writing output data file silicon.save/

     init_run     :      0.33s CPU      0.33s WALL (       2 calls)
     electrons    :      3.02s CPU      3.05s WALL (       3 calls)
     update_pot   :      0.09s CPU      0.09s WALL (       1 calls)
     forces       :      0.08s CPU      0.08s WALL (       3 calls)
     stress       :      0.26s CPU      0.26s WALL (       3 calls)

     Called by init_run:
     wfcinit      :      0.20s CPU      0.20s WALL (       2 calls)
     potinit      :      0.03s CPU      0.03s WALL (       2 calls)
     hinit0       :      0.08s CPU      0.08s WALL (       2 calls)

     Called by electrons:
     c_bands      :      2.55s CPU      2.56s WALL (      18 calls)
     sum_band     :      0.43s CPU      0.45s WALL (      18 calls)
     v_of_rho     :      0.03s CPU      0.03s WALL (      19 calls)
     mix_rho      :      0.01s CPU      0.01s WALL (      18 calls)

     Called by c_bands:
     init_us_2    :      0.11s CPU      0.12s WALL (    1232 calls)
     cegterg      :      2.46s CPU      2.47s WALL (     504 calls)

     Called by sum_band:

     Called by *egterg:
     h_psi        :      2.34s CPU      2.35s WALL (    1671 calls)
     g_psi        :      0.02s CPU      0.02s WALL (    1111 calls)
     cdiaghg      :      0.05s CPU      0.05s WALL (    1531 calls)

     Called by h_psi:
     h_psi:pot    :      2.33s CPU      2.34s WALL (    1671 calls)
     h_psi:calbec :      0.06s CPU      0.06s WALL (    1671 calls)
     vloc_psi     :      2.21s CPU      2.22s WALL (    1671 calls)
     add_vuspsi   :      0.05s CPU      0.05s WALL (    1671 calls)

     General routines
     calbec       :      0.07s CPU      0.07s WALL (    2091 calls)
     fft          :      0.01s CPU      0.01s WALL (      72 calls)
     ffts         :      0.00s CPU      0.00s WALL (      18 calls)
     fftw         :      1.99s CPU      2.00s WALL (   14874 calls)

     Parallel routines

     PWSCF        :      3.82s CPU      3.90s WALL


   This run was terminated on:  16:41:26  30Aug2023            

=------------------------------------------------------------------------------=
   JOB DONE.
=------------------------------------------------------------------------------=
