
     Program PWSCF v.6.4.1 starts on 31Aug2023 at  0:27:21 

     This program is part of the open-source Quantum ESPRESSO suite
     for quantum simulation of materials; please cite
         "P. Giannozzi et al., J. Phys.:Condens. Matter 21 395502 (2009);
         "P. Giannozzi et al., J. Phys.:Condens. Matter 29 465901 (2017);
          URL http://www.quantum-espresso.org", 
     in publications or presentations arising from this work. More details at
     http://www.quantum-espresso.org/quote

     Parallel version (MPI), running on     1 processors

     MPI processes distributed on     1 nodes
     Waiting for input...
     Reading input from standard input

     Current dimensions of program PWSCF are:
     Max number of different atomic species (ntypx) = 10
     Max number of k-points (npk) =  40000
     Max angular momentum in pseudopotentials (lmaxx) =  3

     Subspace diagonalization in iterative solution of the eigenvalue problem:
     a serial algorithm will be used


     G-vector sticks info
     --------------------
     sticks:   dense  smooth     PW     G-vecs:    dense   smooth      PW
     Sum         433     433    151                 5961     5961    1139



     bravais-lattice index     =            2
     lattice parameter (alat)  =      10.2015  a.u.
     unit-cell volume          =     265.4191 (a.u.)^3
     number of atoms/cell      =            2
     number of atomic types    =            1
     number of electrons       =         8.00
     number of Kohn-Sham states=            8
     kinetic-energy cutoff     =      30.0000  Ry
     charge density cutoff     =     120.0000  Ry
     convergence threshold     =      1.0E-06
     mixing beta               =       0.7000
     number of iterations used =            8  plain     mixing
     Exchange-correlation      = SLA PZ NOGX NOGC ( 1  1  0  0 0 0)

     celldm(1)=  10.201500  celldm(2)=   0.000000  celldm(3)=   0.000000
     celldm(4)=   0.000000  celldm(5)=   0.000000  celldm(6)=   0.000000

     crystal axes: (cart. coord. in units of alat)
               a(1) = (  -0.500000   0.000000   0.500000 )  
               a(2) = (   0.000000   0.500000   0.500000 )  
               a(3) = (  -0.500000   0.500000   0.000000 )  

     reciprocal axes: (cart. coord. in units 2 pi/alat)
               b(1) = ( -1.000000 -1.000000  1.000000 )  
               b(2) = (  1.000000  1.000000  1.000000 )  
               b(3) = ( -1.000000  1.000000 -1.000000 )  


     PseudoPot. # 1 for Si read from file:
     /home/meyn/q-e-qe-7.1/pseudo/Si.pz-vbc.UPF
     MD5 check sum: 9f25e6ff280f3123e9b3a84715b2e9c9
     Pseudo is Norm-conserving, Zval =  4.0
     Generated by new atomic code, or converted to UPF format
     Using radial grid of  431 points,  2 beta functions with: 
                l(1) =   0
                l(2) =   1

     atomic species   valence    mass     pseudopotential
        Si             4.00    28.08600     Si( 1.00)

      6 Sym. Ops. (no inversion) found


                                    s                        frac. trans.

      isym =  1     identity                                     

 cryst.   s( 1) = (     1          0          0      )
                  (     0          1          0      )
                  (     0          0          1      )

 cart.    s( 1) = (  1.0000000  0.0000000  0.0000000 )
                  (  0.0000000  1.0000000  0.0000000 )
                  (  0.0000000  0.0000000  1.0000000 )


      isym =  2     120 deg rotation - cart. axis [-1,-1,-1]     

 cryst.   s( 2) = (    -1          0          1      )
                  (    -1          1          0      )
                  (    -1          0          0      )

 cart.    s( 2) = (  0.0000000  1.0000000  0.0000000 )
                  (  0.0000000  0.0000000  1.0000000 )
                  (  1.0000000  0.0000000  0.0000000 )


      isym =  3     120 deg rotation - cart. axis [1,1,1]        

 cryst.   s( 3) = (     0          0         -1      )
                  (     0          1         -1      )
                  (     1          0         -1      )

 cart.    s( 3) = (  0.0000000  0.0000000  1.0000000 )
                  (  1.0000000  0.0000000  0.0000000 )
                  (  0.0000000  1.0000000  0.0000000 )


      isym =  4     inv. 180 deg rotation - cart. axis [1,-1,0]  

 cryst.   s( 4) = (     1          0         -1      )
                  (     0          1         -1      )
                  (     0          0         -1      )

 cart.    s( 4) = (  0.0000000  1.0000000  0.0000000 )
                  (  1.0000000  0.0000000  0.0000000 )
                  (  0.0000000  0.0000000  1.0000000 )


      isym =  5     inv. 180 deg rotation - cart. axis [-1,0,1]  

 cryst.   s( 5) = (    -1          0          0      )
                  (    -1          1          0      )
                  (    -1          0          1      )

 cart.    s( 5) = (  0.0000000  0.0000000  1.0000000 )
                  (  0.0000000  1.0000000  0.0000000 )
                  (  1.0000000  0.0000000  0.0000000 )


      isym =  6     inv. 180 deg rotation - cart. axis [0,1,-1]  

 cryst.   s( 6) = (     0          0          1      )
                  (     0          1          0      )
                  (     1          0          0      )

 cart.    s( 6) = (  1.0000000  0.0000000  0.0000000 )
                  (  0.0000000  0.0000000  1.0000000 )
                  (  0.0000000  1.0000000  0.0000000 )


     point group C_3v (3m)  
     there are  3 classes
     the character table:

       E     2C3   3s_v 
A_1    1.00  1.00  1.00
A_2    1.00  1.00 -1.00
E      2.00 -1.00  0.00

     the symmetry operations in each class and the name of the first element:

     E        1
          identity                                               
     2C3      2    3
          120 deg rotation - cart. axis [-1,-1,-1]               
     3s_v     4    5    6
          inv. 180 deg rotation - cart. axis [1,-1,0]            

   Cartesian axes

     site n.     atom                  positions (alat units)
         1           Si  tau(   1) = (  -0.0000000  -0.0000000   0.0000000  )
         2           Si  tau(   2) = (   0.2500375   0.2500375   0.2500375  )

   Crystallographic axes

     site n.     atom                  positions (cryst. coord.)
         1           Si  tau(   1) = (  0.0000000  0.0000000  0.0000000  )
         2           Si  tau(   2) = ( -0.2500375  0.7501124 -0.2500375  )

     number of k points=    91
                       cart. coord. in units 2pi/alat
        k(    1) = (  -0.0833333   0.0833333   0.0833333), wk =   0.0138889
        k(    2) = (  -0.2500000   0.2500000  -0.0833333), wk =   0.0277778
        k(    3) = (  -0.4166667   0.4166667  -0.2500000), wk =   0.0277778
        k(    4) = (   0.4166667  -0.4166667   0.5833333), wk =   0.0277778
        k(    5) = (   0.2500000  -0.2500000   0.4166667), wk =   0.0277778
        k(    6) = (   0.0833333  -0.0833333   0.2500000), wk =   0.0277778
        k(    7) = (  -0.0833333   0.4166667   0.0833333), wk =   0.0277778
        k(    8) = (  -0.2500000   0.5833333  -0.0833333), wk =   0.0277778
        k(    9) = (   0.5833333  -0.2500000   0.7500000), wk =   0.0277778
        k(   10) = (   0.4166667  -0.0833333   0.5833333), wk =   0.0277778
        k(   11) = (   0.2500000   0.0833333   0.4166667), wk =   0.0277778
        k(   12) = (  -0.0833333   0.7500000   0.0833333), wk =   0.0277778
        k(   13) = (   0.7500000  -0.0833333   0.9166667), wk =   0.0277778
        k(   14) = (   0.5833333   0.0833333   0.7500000), wk =   0.0277778
        k(   15) = (   0.4166667   0.2500000   0.5833333), wk =   0.0277778
        k(   16) = (  -0.0833333  -0.9166667   0.0833333), wk =   0.0277778
        k(   17) = (  -0.2500000  -0.7500000  -0.0833333), wk =   0.0277778
        k(   18) = (  -0.0833333  -0.5833333   0.0833333), wk =   0.0277778
        k(   19) = (  -0.2500000   0.2500000   0.2500000), wk =   0.0138889
        k(   20) = (  -0.4166667   0.4166667   0.0833333), wk =   0.0277778
        k(   21) = (   0.4166667  -0.4166667   0.9166667), wk =   0.0277778
        k(   22) = (   0.2500000  -0.2500000   0.7500000), wk =   0.0277778
        k(   23) = (  -0.2500000   0.5833333   0.2500000), wk =   0.0277778
        k(   24) = (   0.5833333  -0.2500000   1.0833333), wk =   0.0277778
        k(   25) = (   0.4166667  -0.0833333   0.9166667), wk =   0.0277778
        k(   26) = (  -0.2500000  -1.0833333   0.2500000), wk =   0.0277778
        k(   27) = (  -0.4166667   0.4166667   0.4166667), wk =   0.0138889
        k(   28) = (   0.4166667  -0.4166667   1.2500000), wk =   0.0277778
        k(   29) = (   0.0833333   0.0833333   0.0833333), wk =   0.0046296
        k(   30) = (   0.2500000   0.2500000  -0.0833333), wk =   0.0138889
        k(   31) = (  -0.2500000  -0.2500000  -0.0833333), wk =   0.0138889
        k(   32) = (   0.4166667   0.4166667  -0.2500000), wk =   0.0138889
        k(   33) = (  -0.4166667  -0.4166667  -0.2500000), wk =   0.0138889
        k(   34) = (  -0.4166667  -0.4166667   0.5833333), wk =   0.0138889
        k(   35) = (   0.4166667   0.4166667   0.5833333), wk =   0.0138889
        k(   36) = (  -0.2500000  -0.2500000   0.4166667), wk =   0.0138889
        k(   37) = (   0.2500000   0.2500000   0.4166667), wk =   0.0138889
        k(   38) = (  -0.0833333  -0.0833333   0.2500000), wk =   0.0138889
        k(   39) = (   0.0833333   0.0833333   0.2500000), wk =   0.0138889
        k(   40) = (   0.4166667   0.0833333   0.0833333), wk =   0.0138889
        k(   41) = (  -0.0833333   0.4166667  -0.0833333), wk =   0.0138889
        k(   42) = (   0.5833333   0.2500000  -0.0833333), wk =   0.0277778
        k(   43) = (  -0.5833333  -0.2500000  -0.0833333), wk =   0.0277778
        k(   44) = (   0.0833333   0.5833333  -0.2500000), wk =   0.0277778
        k(   45) = (  -0.2500000  -0.5833333   0.7500000), wk =   0.0277778
        k(   46) = (   0.2500000   0.5833333   0.7500000), wk =   0.0277778
        k(   47) = (  -0.7500000  -0.2500000   0.5833333), wk =   0.0277778
        k(   48) = (  -0.0833333  -0.4166667   0.5833333), wk =   0.0277778
        k(   49) = (   0.0833333   0.4166667   0.5833333), wk =   0.0277778
        k(   50) = (  -0.5833333  -0.0833333   0.4166667), wk =   0.0277778
        k(   51) = (   0.0833333  -0.2500000   0.4166667), wk =   0.0277778
        k(   52) = (  -0.0833333   0.2500000   0.4166667), wk =   0.0277778
        k(   53) = (  -0.4166667   0.0833333   0.2500000), wk =   0.0277778
        k(   54) = (   0.7500000   0.0833333   0.0833333), wk =   0.0138889
        k(   55) = (  -0.0833333   0.7500000  -0.0833333), wk =   0.0138889
        k(   56) = (  -0.0833333  -0.7500000   0.9166667), wk =   0.0277778
        k(   57) = (   0.0833333   0.7500000   0.9166667), wk =   0.0277778
        k(   58) = (  -0.9166667  -0.0833333   0.7500000), wk =   0.0277778
        k(   59) = (   0.0833333  -0.5833333   0.7500000), wk =   0.0277778
        k(   60) = (  -0.0833333   0.5833333   0.7500000), wk =   0.0277778
        k(   61) = (  -0.7500000   0.0833333   0.5833333), wk =   0.0277778
        k(   62) = (   0.2500000  -0.4166667   0.5833333), wk =   0.0277778
        k(   63) = (  -0.2500000   0.4166667   0.5833333), wk =   0.0277778
        k(   64) = (  -0.5833333   0.2500000   0.4166667), wk =   0.0277778
        k(   65) = (  -0.9166667   0.0833333   0.0833333), wk =   0.0138889
        k(   66) = (  -0.0833333  -0.9166667  -0.0833333), wk =   0.0138889
        k(   67) = (  -0.7500000   0.2500000  -0.0833333), wk =   0.0277778
        k(   68) = (   0.7500000  -0.2500000  -0.0833333), wk =   0.0277778
        k(   69) = (   0.0833333  -0.7500000  -0.2500000), wk =   0.0277778
        k(   70) = (  -0.5833333   0.0833333   0.0833333), wk =   0.0138889
        k(   71) = (  -0.0833333  -0.5833333  -0.0833333), wk =   0.0138889
        k(   72) = (   0.2500000   0.2500000   0.2500000), wk =   0.0046296
        k(   73) = (   0.4166667   0.4166667   0.0833333), wk =   0.0138889
        k(   74) = (  -0.4166667  -0.4166667   0.0833333), wk =   0.0138889
        k(   75) = (  -0.4166667  -0.4166667   0.9166667), wk =   0.0138889
        k(   76) = (   0.4166667   0.4166667   0.9166667), wk =   0.0138889
        k(   77) = (  -0.2500000  -0.2500000   0.7500000), wk =   0.0138889
        k(   78) = (   0.2500000   0.2500000   0.7500000), wk =   0.0138889
        k(   79) = (   0.5833333   0.2500000   0.2500000), wk =   0.0138889
        k(   80) = (  -0.2500000   0.5833333  -0.2500000), wk =   0.0138889
        k(   81) = (  -0.2500000  -0.5833333   1.0833333), wk =   0.0277778
        k(   82) = (   0.2500000   0.5833333   1.0833333), wk =   0.0277778
        k(   83) = (  -1.0833333  -0.2500000   0.5833333), wk =   0.0277778
        k(   84) = (  -0.0833333  -0.4166667   0.9166667), wk =   0.0277778
        k(   85) = (   0.0833333   0.4166667   0.9166667), wk =   0.0277778
        k(   86) = (  -0.9166667  -0.0833333   0.4166667), wk =   0.0277778
        k(   87) = (  -1.0833333   0.2500000   0.2500000), wk =   0.0138889
        k(   88) = (  -0.2500000  -1.0833333  -0.2500000), wk =   0.0138889
        k(   89) = (   0.4166667   0.4166667   0.4166667), wk =   0.0046296
        k(   90) = (  -0.4166667  -0.4166667   1.2500000), wk =   0.0138889
        k(   91) = (   0.4166667   0.4166667   1.2500000), wk =   0.0138889

                       cryst. coord.
        k(    1) = (   0.0833333   0.0833333   0.0833333), wk =   0.0138889
        k(    2) = (   0.0833333   0.0833333   0.2500000), wk =   0.0277778
        k(    3) = (   0.0833333   0.0833333   0.4166667), wk =   0.0277778
        k(    4) = (   0.0833333   0.0833333  -0.4166667), wk =   0.0277778
        k(    5) = (   0.0833333   0.0833333  -0.2500000), wk =   0.0277778
        k(    6) = (   0.0833333   0.0833333  -0.0833333), wk =   0.0277778
        k(    7) = (   0.0833333   0.2500000   0.2500000), wk =   0.0277778
        k(    8) = (   0.0833333   0.2500000   0.4166667), wk =   0.0277778
        k(    9) = (   0.0833333   0.2500000  -0.4166667), wk =   0.0277778
        k(   10) = (   0.0833333   0.2500000  -0.2500000), wk =   0.0277778
        k(   11) = (   0.0833333   0.2500000  -0.0833333), wk =   0.0277778
        k(   12) = (   0.0833333   0.4166667   0.4166667), wk =   0.0277778
        k(   13) = (   0.0833333   0.4166667  -0.4166667), wk =   0.0277778
        k(   14) = (   0.0833333   0.4166667  -0.2500000), wk =   0.0277778
        k(   15) = (   0.0833333   0.4166667  -0.0833333), wk =   0.0277778
        k(   16) = (   0.0833333  -0.4166667  -0.4166667), wk =   0.0277778
        k(   17) = (   0.0833333  -0.4166667  -0.2500000), wk =   0.0277778
        k(   18) = (   0.0833333  -0.2500000  -0.2500000), wk =   0.0277778
        k(   19) = (   0.2500000   0.2500000   0.2500000), wk =   0.0138889
        k(   20) = (   0.2500000   0.2500000   0.4166667), wk =   0.0277778
        k(   21) = (   0.2500000   0.2500000  -0.4166667), wk =   0.0277778
        k(   22) = (   0.2500000   0.2500000  -0.2500000), wk =   0.0277778
        k(   23) = (   0.2500000   0.4166667   0.4166667), wk =   0.0277778
        k(   24) = (   0.2500000   0.4166667  -0.4166667), wk =   0.0277778
        k(   25) = (   0.2500000   0.4166667  -0.2500000), wk =   0.0277778
        k(   26) = (   0.2500000  -0.4166667  -0.4166667), wk =   0.0277778
        k(   27) = (   0.4166667   0.4166667   0.4166667), wk =   0.0138889
        k(   28) = (   0.4166667   0.4166667  -0.4166667), wk =   0.0277778
        k(   29) = (   0.0000000   0.0833333   0.0000000), wk =   0.0046296
        k(   30) = (  -0.1666667   0.0833333   0.0000000), wk =   0.0138889
        k(   31) = (   0.0833333  -0.1666667   0.0000000), wk =   0.0138889
        k(   32) = (  -0.3333333   0.0833333   0.0000000), wk =   0.0138889
        k(   33) = (   0.0833333  -0.3333333   0.0000000), wk =   0.0138889
        k(   34) = (   0.5000000   0.0833333   0.0000000), wk =   0.0138889
        k(   35) = (   0.0833333   0.5000000   0.0000000), wk =   0.0138889
        k(   36) = (   0.3333333   0.0833333   0.0000000), wk =   0.0138889
        k(   37) = (   0.0833333   0.3333333   0.0000000), wk =   0.0138889
        k(   38) = (   0.1666667   0.0833333   0.0000000), wk =   0.0138889
        k(   39) = (   0.0833333   0.1666667   0.0000000), wk =   0.0138889
        k(   40) = (  -0.1666667   0.0833333  -0.1666667), wk =   0.0138889
        k(   41) = (   0.0000000   0.1666667   0.2500000), wk =   0.0138889
        k(   42) = (  -0.3333333   0.0833333  -0.1666667), wk =   0.0277778
        k(   43) = (   0.2500000  -0.1666667   0.1666667), wk =   0.0277778
        k(   44) = (  -0.1666667   0.1666667   0.2500000), wk =   0.0277778
        k(   45) = (   0.5000000   0.0833333  -0.1666667), wk =   0.0277778
        k(   46) = (   0.2500000   0.6666667   0.1666667), wk =   0.0277778
        k(   47) = (   0.6666667   0.1666667   0.2500000), wk =   0.0277778
        k(   48) = (   0.3333333   0.0833333  -0.1666667), wk =   0.0277778
        k(   49) = (   0.2500000   0.5000000   0.1666667), wk =   0.0277778
        k(   50) = (   0.5000000   0.1666667   0.2500000), wk =   0.0277778
        k(   51) = (   0.1666667   0.0833333  -0.1666667), wk =   0.0277778
        k(   52) = (   0.2500000   0.3333333   0.1666667), wk =   0.0277778
        k(   53) = (   0.3333333   0.1666667   0.2500000), wk =   0.0277778
        k(   54) = (  -0.3333333   0.0833333  -0.3333333), wk =   0.0138889
        k(   55) = (   0.0000000   0.3333333   0.4166667), wk =   0.0138889
        k(   56) = (   0.5000000   0.0833333  -0.3333333), wk =   0.0277778
        k(   57) = (   0.4166667   0.8333333   0.3333333), wk =   0.0277778
        k(   58) = (   0.8333333   0.3333333   0.4166667), wk =   0.0277778
        k(   59) = (   0.3333333   0.0833333  -0.3333333), wk =   0.0277778
        k(   60) = (   0.4166667   0.6666667   0.3333333), wk =   0.0277778
        k(   61) = (   0.6666667   0.3333333   0.4166667), wk =   0.0277778
        k(   62) = (   0.1666667   0.0833333  -0.3333333), wk =   0.0277778
        k(   63) = (   0.4166667   0.5000000   0.3333333), wk =   0.0277778
        k(   64) = (   0.5000000   0.3333333   0.4166667), wk =   0.0277778
        k(   65) = (   0.5000000   0.0833333   0.5000000), wk =   0.0138889
        k(   66) = (   0.0000000  -0.5000000  -0.4166667), wk =   0.0138889
        k(   67) = (   0.3333333   0.0833333   0.5000000), wk =   0.0277778
        k(   68) = (  -0.4166667  -0.1666667  -0.5000000), wk =   0.0277778
        k(   69) = (  -0.1666667  -0.5000000  -0.4166667), wk =   0.0277778
        k(   70) = (   0.3333333   0.0833333   0.3333333), wk =   0.0138889
        k(   71) = (   0.0000000  -0.3333333  -0.2500000), wk =   0.0138889
        k(   72) = (   0.0000000   0.2500000   0.0000000), wk =   0.0046296
        k(   73) = (  -0.1666667   0.2500000   0.0000000), wk =   0.0138889
        k(   74) = (   0.2500000  -0.1666667   0.0000000), wk =   0.0138889
        k(   75) = (   0.6666667   0.2500000   0.0000000), wk =   0.0138889
        k(   76) = (   0.2500000   0.6666667   0.0000000), wk =   0.0138889
        k(   77) = (   0.5000000   0.2500000   0.0000000), wk =   0.0138889
        k(   78) = (   0.2500000   0.5000000   0.0000000), wk =   0.0138889
        k(   79) = (  -0.1666667   0.2500000  -0.1666667), wk =   0.0138889
        k(   80) = (   0.0000000   0.1666667   0.4166667), wk =   0.0138889
        k(   81) = (   0.6666667   0.2500000  -0.1666667), wk =   0.0277778
        k(   82) = (   0.4166667   0.8333333   0.1666667), wk =   0.0277778
        k(   83) = (   0.8333333   0.1666667   0.4166667), wk =   0.0277778
        k(   84) = (   0.5000000   0.2500000  -0.1666667), wk =   0.0277778
        k(   85) = (   0.4166667   0.6666667   0.1666667), wk =   0.0277778
        k(   86) = (   0.6666667   0.1666667   0.4166667), wk =   0.0277778
        k(   87) = (   0.6666667   0.2500000   0.6666667), wk =   0.0138889
        k(   88) = (   0.0000000  -0.6666667  -0.4166667), wk =   0.0138889
        k(   89) = (   0.0000000   0.4166667   0.0000000), wk =   0.0046296
        k(   90) = (   0.8333333   0.4166667   0.0000000), wk =   0.0138889
        k(   91) = (   0.4166667   0.8333333   0.0000000), wk =   0.0138889

     Dense  grid:     5961 G-vectors     FFT dimensions: (  25,  25,  25)

     Dynamical RAM for                 wfc:       0.09 MB

     Dynamical RAM for     wfc (w. buffer):       8.27 MB

     Dynamical RAM for           str. fact:       0.09 MB

     Dynamical RAM for           local pot:       0.00 MB

     Dynamical RAM for          nlocal pot:       0.09 MB

     Dynamical RAM for                qrad:       0.12 MB

     Dynamical RAM for          rho,v,vnew:       0.63 MB

     Dynamical RAM for               rhoin:       0.21 MB

     Dynamical RAM for            rho*nmix:       1.46 MB

     Dynamical RAM for           G-vectors:       0.39 MB

     Dynamical RAM for          h,s,v(r/c):       0.05 MB

     Dynamical RAM for          <psi|beta>:       0.00 MB

     Dynamical RAM for                 psi:       0.36 MB

     Dynamical RAM for                hpsi:       0.36 MB

     Dynamical RAM for      wfcinit/wfcrot:       0.18 MB

     Estimated static dynamical RAM per process >      12.03 MB

     Estimated max dynamical RAM per process >      12.80 MB

     Initial potential from superposition of free atoms

     starting charge    7.99901, renormalised to    8.00000
     Starting wfcs are    8 randomized atomic wfcs

     total cpu time spent up to now is        0.8 secs

     Self-consistent Calculation

     iteration #  1     ecut=    30.00 Ry     beta= 0.70
     Davidson diagonalization with overlap
     ethr =  1.00E-02,  avg # of iterations =  4.0

     Threshold (ethr) on eigenvalues was too large:
     Diagonalizing with lowered threshold

     Davidson diagonalization with overlap
     ethr =  8.02E-04,  avg # of iterations =  1.0

     total cpu time spent up to now is        4.0 secs

     total energy              =     -15.84849612 Ry
     Harris-Foulkes estimate   =     -15.86989587 Ry
     estimated scf accuracy    <       0.06277546 Ry

     iteration #  2     ecut=    30.00 Ry     beta= 0.70
     Davidson diagonalization with overlap
     ethr =  7.85E-04,  avg # of iterations =  1.0

     total cpu time spent up to now is        5.2 secs

     total energy              =     -15.85227693 Ry
     Harris-Foulkes estimate   =     -15.85248417 Ry
     estimated scf accuracy    <       0.00181978 Ry

     iteration #  3     ecut=    30.00 Ry     beta= 0.70
     Davidson diagonalization with overlap
     ethr =  2.27E-05,  avg # of iterations =  3.2

     total cpu time spent up to now is        7.1 secs

     total energy              =     -15.85237585 Ry
     Harris-Foulkes estimate   =     -15.85237970 Ry
     estimated scf accuracy    <       0.00005356 Ry

     iteration #  4     ecut=    30.00 Ry     beta= 0.70
     Davidson diagonalization with overlap
     ethr =  6.69E-07,  avg # of iterations =  2.3

     total cpu time spent up to now is        8.3 secs

     End of self-consistent calculation

          k =-0.0833 0.0833 0.0833 (   731 PWs)   bands (ev):

    -5.7303   5.3679   6.0781   6.0806   8.8514   9.0092   9.0108  10.3389

     occupation numbers 
     1.0000   1.0000   1.0000   1.0000   0.0000   0.0000   0.0000   0.0000

          k =-0.2500 0.2500-0.0833 (   739 PWs)   bands (ev):

    -5.2442   3.2764   4.8140   5.8700   8.9687   9.4078   9.7657  11.9864

     occupation numbers 
     1.0000   1.0000   1.0000   1.0000   0.0000   0.0000   0.0000   0.0000

          k =-0.4167 0.4167-0.2500 (   745 PWs)   bands (ev):

    -4.1243   0.4592   4.3498   5.2209   8.4582   9.7778   9.8059  13.6767

     occupation numbers 
     1.0000   1.0000   1.0000   1.0000   0.0000   0.0000   0.0000   0.0000

          k = 0.4167-0.4167 0.5833 (   743 PWs)   bands (ev):

    -3.3964  -0.7219   4.4231   4.8303   8.2924   9.4758   9.9176  14.0639

     occupation numbers 
     1.0000   1.0000   1.0000   1.0000   0.0000   0.0000   0.0000   0.0000

          k = 0.2500-0.2500 0.4167 (   742 PWs)   bands (ev):

    -4.5480   1.3250   4.8876   4.9328   8.5283   9.5319  10.3266  12.1802

     occupation numbers 
     1.0000   1.0000   1.0000   1.0000   0.0000   0.0000   0.0000   0.0000

          k = 0.0833-0.0833 0.2500 (   734 PWs)   bands (ev):

    -5.4850   4.3021   5.4171   5.6176   8.5245   9.4854   9.9256  11.1674

     occupation numbers 
     1.0000   1.0000   1.0000   1.0000   0.0000   0.0000   0.0000   0.0000

          k =-0.0833 0.4167 0.0833 (   736 PWs)   bands (ev):

    -4.9986   3.1135   4.6628   4.6710   7.9162  10.1211  10.9162  11.1599

     occupation numbers 
     1.0000   1.0000   1.0000   1.0000   0.0000   0.0000   0.0000   0.0000

          k =-0.2500 0.5833-0.0833 (   739 PWs)   bands (ev):

    -4.0681   1.2527   3.3034   4.2757   8.3141   9.9411  10.8060  12.2719

     occupation numbers 
     1.0000   1.0000   1.0000   1.0000   0.0000   0.0000   0.0000   0.0000

          k = 0.5833-0.2500 0.7500 (   733 PWs)   bands (ev):

    -2.9122  -0.5567   2.6982   4.0383   8.5649  10.1534  12.1371  12.5100

     occupation numbers 
     1.0000   1.0000   1.0000   1.0000   0.0000   0.0000   0.0000   0.0000

          k = 0.4167-0.0833 0.5833 (   739 PWs)   bands (ev):

    -3.6616   0.5407   2.6411   4.5411   9.1982   9.8159  11.5172  11.9975

     occupation numbers 
     1.0000   1.0000   1.0000   1.0000   0.0000   0.0000   0.0000   0.0000

          k = 0.2500 0.0833 0.4167 (   737 PWs)   bands (ev):

    -4.7679   2.2511   4.0186   5.2318   8.8309   9.7756  10.8017  11.0948

     occupation numbers 
     1.0000   1.0000   1.0000   1.0000   0.0000   0.0000   0.0000   0.0000

          k =-0.0833 0.7500 0.0833 (   738 PWs)   bands (ev):

    -3.3441   0.4373   3.2619   3.6203   7.0514   8.0239  13.8400  13.8894

     occupation numbers 
     1.0000   1.0000   1.0000   1.0000   0.0000   0.0000   0.0000   0.0000

          k = 0.7500-0.0833 0.9167 (   737 PWs)   bands (ev):

    -2.1176  -0.9230   2.3848   3.1928   7.6811   8.8239  13.3656  14.8577

     occupation numbers 
     1.0000   1.0000   1.0000   1.0000   0.0000   0.0000   0.0000   0.0000

          k = 0.5833 0.0833 0.7500 (   732 PWs)   bands (ev):

    -2.4854  -0.6012   1.8891   3.7544   8.3198  11.2660  12.2777  12.9801

     occupation numbers 
     1.0000   1.0000   1.0000   1.0000   0.0000   0.0000   0.0000   0.0000

          k = 0.4167 0.2500 0.5833 (   739 PWs)   bands (ev):

    -3.5415  -0.1903   3.6270   4.6439   8.8377   9.4007  10.7765  12.9793

     occupation numbers 
     1.0000   1.0000   1.0000   1.0000   0.0000   0.0000   0.0000   0.0000

          k =-0.0833-0.9167 0.0833 (   736 PWs)   bands (ev):

    -2.2172  -0.9337   2.9846   3.4003   6.9247   7.5032  15.3331  15.4212

     occupation numbers 
     1.0000   1.0000   1.0000   1.0000   0.0000   0.0000   0.0000   0.0000

          k =-0.2500-0.7500-0.0833 (   737 PWs)   bands (ev):

    -3.1687   0.2070   2.7231   3.5420   7.9028   9.1924  12.0076  13.8344

     occupation numbers 
     1.0000   1.0000   1.0000   1.0000   0.0000   0.0000   0.0000   0.0000

          k =-0.0833-0.5833 0.0833 (   732 PWs)   bands (ev):

    -4.2797   1.8160   3.8250   4.0515   7.3891   8.9544  12.2995  12.4938

     occupation numbers 
     1.0000   1.0000   1.0000   1.0000   0.0000   0.0000   0.0000   0.0000

          k =-0.2500 0.2500 0.2500 (   745 PWs)   bands (ev):

    -5.0095   2.2728   5.4540   5.4562   8.2779   9.7417   9.7438  13.1481

     occupation numbers 
     1.0000   1.0000   1.0000   1.0000   0.0000   0.0000   0.0000   0.0000

          k =-0.4167 0.4167 0.0833 (   740 PWs)   bands (ev):

    -4.3149   1.3491   3.2664   5.2854   9.0226  10.2433  10.3847  12.3522

     occupation numbers 
     1.0000   1.0000   1.0000   1.0000   0.0000   0.0000   0.0000   0.0000

          k = 0.4167-0.4167 0.9167 (   734 PWs)   bands (ev):

    -3.1025  -0.1025   2.1222   4.4783   8.2132  11.5715  11.6468  13.4012

     occupation numbers 
     1.0000   1.0000   1.0000   1.0000   0.0000   0.0000   0.0000   0.0000

          k = 0.2500-0.2500 0.7500 (   735 PWs)   bands (ev):

    -3.0519  -0.1820   2.6215   3.9830   7.6915  10.6405  11.9980  12.1663

     occupation numbers 
     1.0000   1.0000   1.0000   1.0000   0.0000   0.0000   0.0000   0.0000

          k =-0.2500 0.5833 0.2500 (   738 PWs)   bands (ev):

    -3.8799   0.5198   3.7600   4.3649   8.2025  10.5002  11.1357  11.2604

     occupation numbers 
     1.0000   1.0000   1.0000   1.0000   0.0000   0.0000   0.0000   0.0000

          k = 0.5833-0.2500 1.0833 (   736 PWs)   bands (ev):

    -2.8522  -0.1999   2.2224   3.5354   9.4210   9.9737  10.9816  13.7374

     occupation numbers 
     1.0000   1.0000   1.0000   1.0000   0.0000   0.0000   0.0000   0.0000

          k = 0.4167-0.0833 0.9167 (   732 PWs)   bands (ev):

    -2.0006  -0.9306   2.0414   2.8431   9.2126  10.4710  11.3557  12.7338

     occupation numbers 
     1.0000   1.0000   1.0000   1.0000   0.0000   0.0000   0.0000   0.0000

          k =-0.2500-1.0833 0.2500 (   732 PWs)   bands (ev):

    -2.2138  -0.8478   1.9113   3.7840   7.4025  10.3584  13.3581  13.5527

     occupation numbers 
     1.0000   1.0000   1.0000   1.0000   0.0000   0.0000   0.0000   0.0000

          k =-0.4167 0.4167 0.4167 (   739 PWs)   bands (ev):

    -3.7814  -0.3096   5.0609   5.0630   7.8458   9.6146   9.6170  13.9084

     occupation numbers 
     1.0000   1.0000   1.0000   1.0000   0.0000   0.0000   0.0000   0.0000

          k = 0.4167-0.4167 1.2500 (   741 PWs)   bands (ev):

    -3.1572  -0.6063   3.1892   4.6089   8.3920  10.2884  10.6284  14.1972

     occupation numbers 
     1.0000   1.0000   1.0000   1.0000   0.0000   0.0000   0.0000   0.0000

          k = 0.0833 0.0833 0.0833 (   731 PWs)   bands (ev):

    -5.7303   5.3699   6.0782   6.0782   8.8503   9.0105   9.0105  10.3392

     occupation numbers 
     1.0000   1.0000   1.0000   1.0000   0.0000   0.0000   0.0000   0.0000

          k = 0.2500 0.2500-0.0833 (   739 PWs)   bands (ev):

    -5.2442   3.2770   4.8147   5.8682   8.9687   9.4092   9.7646  11.9861

     occupation numbers 
     1.0000   1.0000   1.0000   1.0000   0.0000   0.0000   0.0000   0.0000

          k =-0.2500-0.2500-0.0833 (   739 PWs)   bands (ev):

    -5.2442   3.2780   4.8135   5.8684   8.9680   9.4085   9.7650  11.9866

     occupation numbers 
     1.0000   1.0000   1.0000   1.0000   0.0000   0.0000   0.0000   0.0000

          k = 0.4167 0.4167-0.2500 (   745 PWs)   bands (ev):

    -4.1244   0.4594   4.3509   5.2193   8.4581   9.7797   9.8045  13.6763

     occupation numbers 
     1.0000   1.0000   1.0000   1.0000   0.0000   0.0000   0.0000   0.0000

          k =-0.4167-0.4167-0.2500 (   745 PWs)   bands (ev):

    -4.1247   0.4607   4.3496   5.2197   8.4577   9.7778   9.8046  13.6768

     occupation numbers 
     1.0000   1.0000   1.0000   1.0000   0.0000   0.0000   0.0000   0.0000

          k =-0.4167-0.4167 0.5833 (   743 PWs)   bands (ev):

    -3.3964  -0.7219   4.4245   4.8289   8.2923   9.4745   9.9193  14.0642

     occupation numbers 
     1.0000   1.0000   1.0000   1.0000   0.0000   0.0000   0.0000   0.0000

          k = 0.4167 0.4167 0.5833 (   743 PWs)   bands (ev):

    -3.3972  -0.7200   4.4231   4.8294   8.2919   9.4747   9.9174  14.0635

     occupation numbers 
     1.0000   1.0000   1.0000   1.0000   0.0000   0.0000   0.0000   0.0000

          k =-0.2500-0.2500 0.4167 (   742 PWs)   bands (ev):

    -4.5480   1.3248   4.8863   4.9344   8.5283   9.5303  10.3281  12.1812

     occupation numbers 
     1.0000   1.0000   1.0000   1.0000   0.0000   0.0000   0.0000   0.0000

          k = 0.2500 0.2500 0.4167 (   742 PWs)   bands (ev):

    -4.5482   1.3263   4.8867   4.9326   8.5276   9.5310  10.3263  12.1813

     occupation numbers 
     1.0000   1.0000   1.0000   1.0000   0.0000   0.0000   0.0000   0.0000

          k =-0.0833-0.0833 0.2500 (   734 PWs)   bands (ev):

    -5.4850   4.3016   5.4158   5.6198   8.5244   9.4846   9.9264  11.1675

     occupation numbers 
     1.0000   1.0000   1.0000   1.0000   0.0000   0.0000   0.0000   0.0000

          k = 0.0833 0.0833 0.2500 (   734 PWs)   bands (ev):

    -5.4851   4.3035   5.4159   5.6173   8.5244   9.4850   9.9258  11.1676

     occupation numbers 
     1.0000   1.0000   1.0000   1.0000   0.0000   0.0000   0.0000   0.0000

          k = 0.4167 0.0833 0.0833 (   736 PWs)   bands (ev):

    -4.9986   3.1145   4.6626   4.6700   7.9161  10.1215  10.9157  11.1596

     occupation numbers 
     1.0000   1.0000   1.0000   1.0000   0.0000   0.0000   0.0000   0.0000

          k =-0.0833 0.4167-0.0833 (   736 PWs)   bands (ev):

    -4.9986   3.1129   4.6647   4.6699   7.9159  10.1209  10.9165  11.1605

     occupation numbers 
     1.0000   1.0000   1.0000   1.0000   0.0000   0.0000   0.0000   0.0000

          k = 0.5833 0.2500-0.0833 (   739 PWs)   bands (ev):

    -4.0682   1.2536   3.3031   4.2750   8.3151   9.9405  10.8050  12.2719

     occupation numbers 
     1.0000   1.0000   1.0000   1.0000   0.0000   0.0000   0.0000   0.0000

          k =-0.5833-0.2500-0.0833 (   739 PWs)   bands (ev):

    -4.0683   1.2543   3.3025   4.2750   8.3143   9.9412  10.8051  12.2710

     occupation numbers 
     1.0000   1.0000   1.0000   1.0000   0.0000   0.0000   0.0000   0.0000

          k = 0.0833 0.5833-0.2500 (   739 PWs)   bands (ev):

    -4.0681   1.2530   3.3025   4.2764   8.3147   9.9405  10.8062  12.2708

     occupation numbers 
     1.0000   1.0000   1.0000   1.0000   0.0000   0.0000   0.0000   0.0000

          k =-0.2500-0.5833 0.7500 (   733 PWs)   bands (ev):

    -2.9122  -0.5565   2.6977   4.0387   8.5660  10.1521  12.1366  12.5098

     occupation numbers 
     1.0000   1.0000   1.0000   1.0000   0.0000   0.0000   0.0000   0.0000

          k = 0.2500 0.5833 0.7500 (   733 PWs)   bands (ev):

    -2.9131  -0.5546   2.6970   4.0384   8.5650  10.1522  12.1356  12.5109

     occupation numbers 
     1.0000   1.0000   1.0000   1.0000   0.0000   0.0000   0.0000   0.0000

          k =-0.7500-0.2500 0.5833 (   733 PWs)   bands (ev):

    -2.9121  -0.5566   2.6969   4.0397   8.5658  10.1531  12.1353  12.5099

     occupation numbers 
     1.0000   1.0000   1.0000   1.0000   0.0000   0.0000   0.0000   0.0000

          k =-0.0833-0.4167 0.5833 (   739 PWs)   bands (ev):

    -3.6614   0.5399   2.6409   4.5422   9.1994   9.8147  11.5174  11.9977

     occupation numbers 
     1.0000   1.0000   1.0000   1.0000   0.0000   0.0000   0.0000   0.0000

          k = 0.0833 0.4167 0.5833 (   739 PWs)   bands (ev):

    -3.6618   0.5416   2.6403   4.5412   9.1982   9.8150  11.5181  11.9966

     occupation numbers 
     1.0000   1.0000   1.0000   1.0000   0.0000   0.0000   0.0000   0.0000

          k =-0.5833-0.0833 0.4167 (   739 PWs)   bands (ev):

    -3.6614   0.5400   2.6405   4.5424   9.1992   9.8156  11.5172  11.9963

     occupation numbers 
     1.0000   1.0000   1.0000   1.0000   0.0000   0.0000   0.0000   0.0000

          k = 0.0833-0.2500 0.4167 (   737 PWs)   bands (ev):

    -4.7677   2.2496   4.0189   5.2333   8.8310   9.7765  10.8016  11.0943

     occupation numbers 
     1.0000   1.0000   1.0000   1.0000   0.0000   0.0000   0.0000   0.0000

          k =-0.0833 0.2500 0.4167 (   737 PWs)   bands (ev):

    -4.7678   2.2502   4.0195   5.2317   8.8316   9.7754  10.8021  11.0945

     occupation numbers 
     1.0000   1.0000   1.0000   1.0000   0.0000   0.0000   0.0000   0.0000

          k =-0.4167 0.0833 0.2500 (   737 PWs)   bands (ev):

    -4.7677   2.2494   4.0193   5.2331   8.8310   9.7755  10.8024  11.0952

     occupation numbers 
     1.0000   1.0000   1.0000   1.0000   0.0000   0.0000   0.0000   0.0000

          k = 0.7500 0.0833 0.0833 (   738 PWs)   bands (ev):

    -3.3442   0.4377   3.2623   3.6195   7.0510   8.0243  13.8398  13.8889

     occupation numbers 
     1.0000   1.0000   1.0000   1.0000   0.0000   0.0000   0.0000   0.0000

          k =-0.0833 0.7500-0.0833 (   738 PWs)   bands (ev):

    -3.3440   0.4370   3.2631   3.6195   7.0508   8.0243  13.8401  13.8901

     occupation numbers 
     1.0000   1.0000   1.0000   1.0000   0.0000   0.0000   0.0000   0.0000

          k =-0.0833-0.7500 0.9167 (   737 PWs)   bands (ev):

    -2.1177  -0.9228   2.3840   3.1935   7.6821   8.8229  13.3646  14.8579

     occupation numbers 
     1.0000   1.0000   1.0000   1.0000   0.0000   0.0000   0.0000   0.0000

          k = 0.0833 0.7500 0.9167 (   737 PWs)   bands (ev):

    -2.1181  -0.9222   2.3845   3.1928   7.6812   8.8238  13.3647  14.8583

     occupation numbers 
     1.0000   1.0000   1.0000   1.0000   0.0000   0.0000   0.0000   0.0000

          k =-0.9167-0.0833 0.7500 (   737 PWs)   bands (ev):

    -2.1175  -0.9231   2.3839   3.1937   7.6821   8.8229  13.3655  14.8577

     occupation numbers 
     1.0000   1.0000   1.0000   1.0000   0.0000   0.0000   0.0000   0.0000

          k = 0.0833-0.5833 0.7500 (   732 PWs)   bands (ev):

    -2.4845  -0.6030   1.8890   3.7554   8.3208  11.2663  12.2768  12.9795

     occupation numbers 
     1.0000   1.0000   1.0000   1.0000   0.0000   0.0000   0.0000   0.0000

          k =-0.0833 0.5833 0.7500 (   732 PWs)   bands (ev):

    -2.4849  -0.6024   1.8898   3.7544   8.3197  11.2673  12.2768  12.9798

     occupation numbers 
     1.0000   1.0000   1.0000   1.0000   0.0000   0.0000   0.0000   0.0000

          k =-0.7500 0.0833 0.5833 (   732 PWs)   bands (ev):

    -2.4845  -0.6030   1.8892   3.7551   8.3208  11.2658  12.2763  12.9799

     occupation numbers 
     1.0000   1.0000   1.0000   1.0000   0.0000   0.0000   0.0000   0.0000

          k = 0.2500-0.4167 0.5833 (   739 PWs)   bands (ev):

    -3.5409  -0.1920   3.6268   4.6454   8.8379   9.4024  10.7761  12.9783

     occupation numbers 
     1.0000   1.0000   1.0000   1.0000   0.0000   0.0000   0.0000   0.0000

          k =-0.2500 0.4167 0.5833 (   739 PWs)   bands (ev):

    -3.5410  -0.1918   3.6281   4.6437   8.8386   9.4007  10.7776  12.9783

     occupation numbers 
     1.0000   1.0000   1.0000   1.0000   0.0000   0.0000   0.0000   0.0000

          k =-0.5833 0.2500 0.4167 (   739 PWs)   bands (ev):

    -3.5409  -0.1921   3.6278   4.6443   8.8381   9.4010  10.7777  12.9791

     occupation numbers 
     1.0000   1.0000   1.0000   1.0000   0.0000   0.0000   0.0000   0.0000

          k =-0.9167 0.0833 0.0833 (   736 PWs)   bands (ev):

    -2.2171  -0.9338   2.9854   3.3996   6.9238   7.5040  15.3339  15.4213

     occupation numbers 
     1.0000   1.0000   1.0000   1.0000   0.0000   0.0000   0.0000   0.0000

          k =-0.0833-0.9167-0.0833 (   736 PWs)   bands (ev):

    -2.2174  -0.9334   2.9852   3.3996   6.9239   7.5040  15.3328  15.4210

     occupation numbers 
     1.0000   1.0000   1.0000   1.0000   0.0000   0.0000   0.0000   0.0000

          k =-0.7500 0.2500-0.0833 (   737 PWs)   bands (ev):

    -3.1684   0.2059   2.7228   3.5432   7.9034   9.1916  12.0086  13.8343

     occupation numbers 
     1.0000   1.0000   1.0000   1.0000   0.0000   0.0000   0.0000   0.0000

          k = 0.7500-0.2500-0.0833 (   737 PWs)   bands (ev):

    -3.1684   0.2057   2.7240   3.5422   7.9026   9.1924  12.0085  13.8352

     occupation numbers 
     1.0000   1.0000   1.0000   1.0000   0.0000   0.0000   0.0000   0.0000

          k = 0.0833-0.7500-0.2500 (   737 PWs)   bands (ev):

    -3.1685   0.2064   2.7232   3.5423   7.9036   9.1915  12.0075  13.8352

     occupation numbers 
     1.0000   1.0000   1.0000   1.0000   0.0000   0.0000   0.0000   0.0000

          k =-0.5833 0.0833 0.0833 (   732 PWs)   bands (ev):

    -4.2797   1.8155   3.8265   4.0506   7.3887   8.9546  12.2997  12.4944

     occupation numbers 
     1.0000   1.0000   1.0000   1.0000   0.0000   0.0000   0.0000   0.0000

          k =-0.0833-0.5833-0.0833 (   732 PWs)   bands (ev):

    -4.2798   1.8166   3.8251   4.0507   7.3889   8.9547  12.2993  12.4933

     occupation numbers 
     1.0000   1.0000   1.0000   1.0000   0.0000   0.0000   0.0000   0.0000

          k = 0.2500 0.2500 0.2500 (   745 PWs)   bands (ev):

    -5.0096   2.2742   5.4544   5.4544   8.2773   9.7422   9.7422  13.1486

     occupation numbers 
     1.0000   1.0000   1.0000   1.0000   0.0000   0.0000   0.0000   0.0000

          k = 0.4167 0.4167 0.0833 (   740 PWs)   bands (ev):

    -4.3152   1.3507   3.2660   5.2841   9.0217  10.2439  10.3839  12.3528

     occupation numbers 
     1.0000   1.0000   1.0000   1.0000   0.0000   0.0000   0.0000   0.0000

          k =-0.4167-0.4167 0.0833 (   740 PWs)   bands (ev):

    -4.3151   1.3498   3.2668   5.2840   9.0218  10.2449  10.3843  12.3522

     occupation numbers 
     1.0000   1.0000   1.0000   1.0000   0.0000   0.0000   0.0000   0.0000

          k =-0.4167-0.4167 0.9167 (   734 PWs)   bands (ev):

    -3.1028  -0.1018   2.1227   4.4772   8.2121  11.5730  11.6472  13.4009

     occupation numbers 
     1.0000   1.0000   1.0000   1.0000   0.0000   0.0000   0.0000   0.0000

          k = 0.4167 0.4167 0.9167 (   734 PWs)   bands (ev):

    -3.1031  -0.1008   2.1219   4.4773   8.2122  11.5718  11.6463  13.4025

     occupation numbers 
     1.0000   1.0000   1.0000   1.0000   0.0000   0.0000   0.0000   0.0000

          k =-0.2500-0.2500 0.7500 (   735 PWs)   bands (ev):

    -3.0519  -0.1824   2.6228   3.9821   7.6905  10.6417  11.9977  12.1675

     occupation numbers 
     1.0000   1.0000   1.0000   1.0000   0.0000   0.0000   0.0000   0.0000

          k = 0.2500 0.2500 0.7500 (   735 PWs)   bands (ev):

    -3.0525  -0.1805   2.6214   3.9822   7.6906  10.6413  11.9978  12.1660

     occupation numbers 
     1.0000   1.0000   1.0000   1.0000   0.0000   0.0000   0.0000   0.0000

          k = 0.5833 0.2500 0.2500 (   738 PWs)   bands (ev):

    -3.8803   0.5212   3.7598   4.3641   8.2016  10.4997  11.1352  11.2615

     occupation numbers 
     1.0000   1.0000   1.0000   1.0000   0.0000   0.0000   0.0000   0.0000

          k =-0.2500 0.5833-0.2500 (   738 PWs)   bands (ev):

    -3.8799   0.5195   3.7615   4.3638   8.2015  10.5002  11.1369  11.2611

     occupation numbers 
     1.0000   1.0000   1.0000   1.0000   0.0000   0.0000   0.0000   0.0000

          k =-0.2500-0.5833 1.0833 (   736 PWs)   bands (ev):

    -2.8528  -0.1983   2.2226   3.5343   9.4200   9.9732  10.9824  13.7377

     occupation numbers 
     1.0000   1.0000   1.0000   1.0000   0.0000   0.0000   0.0000   0.0000

          k = 0.2500 0.5833 1.0833 (   736 PWs)   bands (ev):

    -2.8525  -0.1992   2.2231   3.5343   9.4209   9.9733  10.9813  13.7387

     occupation numbers 
     1.0000   1.0000   1.0000   1.0000   0.0000   0.0000   0.0000   0.0000

          k =-1.0833-0.2500 0.5833 (   736 PWs)   bands (ev):

    -2.8522  -0.2000   2.2231   3.5348   9.4197   9.9747  10.9817  13.7383

     occupation numbers 
     1.0000   1.0000   1.0000   1.0000   0.0000   0.0000   0.0000   0.0000

          k =-0.0833-0.4167 0.9167 (   732 PWs)   bands (ev):

    -2.0005  -0.9308   2.0418   2.8428   9.2115  10.4724  11.3561  12.7331

     occupation numbers 
     1.0000   1.0000   1.0000   1.0000   0.0000   0.0000   0.0000   0.0000

          k = 0.0833 0.4167 0.9167 (   732 PWs)   bands (ev):

    -2.0013  -0.9295   2.0415   2.8426   9.2116  10.4718  11.3560  12.7337

     occupation numbers 
     1.0000   1.0000   1.0000   1.0000   0.0000   0.0000   0.0000   0.0000

          k =-0.9167-0.0833 0.4167 (   732 PWs)   bands (ev):

    -2.0002  -0.9311   2.0409   2.8437   9.2126  10.4710  11.3565  12.7330

     occupation numbers 
     1.0000   1.0000   1.0000   1.0000   0.0000   0.0000   0.0000   0.0000

          k =-1.0833 0.2500 0.2500 (   732 PWs)   bands (ev):

    -2.2149  -0.8462   1.9115   3.7832   7.4015  10.3594  13.3581  13.5524

     occupation numbers 
     1.0000   1.0000   1.0000   1.0000   0.0000   0.0000   0.0000   0.0000

          k =-0.2500-1.0833-0.2500 (   732 PWs)   bands (ev):

    -2.2142  -0.8474   1.9121   3.7832   7.4015  10.3595  13.3593  13.5526

     occupation numbers 
     1.0000   1.0000   1.0000   1.0000   0.0000   0.0000   0.0000   0.0000

          k = 0.4167 0.4167 0.4167 (   739 PWs)   bands (ev):

    -3.7820  -0.3080   5.0615   5.0615   7.8454   9.6151   9.6151  13.9077

     occupation numbers 
     1.0000   1.0000   1.0000   1.0000   0.0000   0.0000   0.0000   0.0000

          k =-0.4167-0.4167 1.2500 (   741 PWs)   bands (ev):

    -3.1581  -0.6043   3.1890   4.6080   8.3911  10.2879  10.6282  14.1980

     occupation numbers 
     1.0000   1.0000   1.0000   1.0000   0.0000   0.0000   0.0000   0.0000

          k = 0.4167 0.4167 1.2500 (   741 PWs)   bands (ev):

    -3.1573  -0.6061   3.1902   4.6077   8.3911  10.2885  10.6299  14.1977

     occupation numbers 
     1.0000   1.0000   1.0000   1.0000   0.0000   0.0000   0.0000   0.0000

     highest occupied, lowest unoccupied level (ev):     6.0806    6.9238

!    total energy              =     -15.85238420 Ry
     Harris-Foulkes estimate   =     -15.85238414 Ry
     estimated scf accuracy    <       0.00000015 Ry

     The total energy is the sum of the following terms:

     one-electron contribution =       4.78279323 Ry
     hartree contribution      =       1.07852292 Ry
     xc contribution           =      -4.81642675 Ry
     ewald contribution        =     -16.89727360 Ry

     convergence has been achieved in   4 iterations

     Writing output data file silicon.save/

     init_run     :      0.70s CPU      0.72s WALL (       1 calls)
     electrons    :      7.48s CPU      7.52s WALL (       1 calls)

     Called by init_run:
     wfcinit      :      0.63s CPU      0.65s WALL (       1 calls)
     wfcinit:atom :      0.03s CPU      0.03s WALL (      91 calls)
     wfcinit:wfcr :      0.52s CPU      0.54s WALL (      91 calls)
     potinit      :      0.00s CPU      0.00s WALL (       1 calls)
     hinit0       :      0.05s CPU      0.05s WALL (       1 calls)

     Called by electrons:
     c_bands      :      6.39s CPU      6.43s WALL (       5 calls)
     sum_band     :      1.07s CPU      1.07s WALL (       5 calls)
     v_of_rho     :      0.01s CPU      0.01s WALL (       5 calls)
     v_h          :      0.00s CPU      0.00s WALL (       5 calls)
     v_xc         :      0.01s CPU      0.01s WALL (       5 calls)
     mix_rho      :      0.00s CPU      0.00s WALL (       5 calls)

     Called by c_bands:
     init_us_2    :      0.21s CPU      0.21s WALL (    1001 calls)
     cegterg      :      6.22s CPU      6.26s WALL (     455 calls)

     Called by sum_band:

     Called by *egterg:
     h_psi        :      5.36s CPU      5.40s WALL (    1594 calls)
     g_psi        :      0.05s CPU      0.05s WALL (    1048 calls)
     cdiaghg      :      0.27s CPU      0.27s WALL (    1412 calls)
     cegterg:over :      0.42s CPU      0.42s WALL (    1048 calls)
     cegterg:upda :      0.26s CPU      0.26s WALL (    1048 calls)
     cegterg:last :      0.15s CPU      0.15s WALL (     455 calls)

     Called by h_psi:
     h_psi:pot    :      5.33s CPU      5.38s WALL (    1594 calls)
     h_psi:calbec :      0.17s CPU      0.18s WALL (    1594 calls)
     vloc_psi     :      4.99s CPU      5.03s WALL (    1594 calls)
     add_vuspsi   :      0.16s CPU      0.16s WALL (    1594 calls)

     General routines
     calbec       :      0.17s CPU      0.17s WALL (    1594 calls)
     fft          :      0.00s CPU      0.00s WALL (      15 calls)
     ffts         :      0.00s CPU      0.00s WALL (       5 calls)
     fftw         :      5.02s CPU      5.06s WALL (   23252 calls)

     Parallel routines

     PWSCF        :      8.26s CPU      8.38s WALL


   This run was terminated on:   0:27:29  31Aug2023            

=------------------------------------------------------------------------------=
   JOB DONE.
=------------------------------------------------------------------------------=
