
     Program PWSCF v.6.4.1 starts on 30Aug2023 at 18: 4:29 

     This program is part of the open-source Quantum ESPRESSO suite
     for quantum simulation of materials; please cite
         "P. Giannozzi et al., J. Phys.:Condens. Matter 21 395502 (2009);
         "P. Giannozzi et al., J. Phys.:Condens. Matter 29 465901 (2017);
          URL http://www.quantum-espresso.org", 
     in publications or presentations arising from this work. More details at
     http://www.quantum-espresso.org/quote

     Parallel version (MPI), running on     1 processors

     MPI processes distributed on     1 nodes
     Waiting for input...
     Reading input from standard input

     Current dimensions of program PWSCF are:
     Max number of different atomic species (ntypx) = 10
     Max number of k-points (npk) =  40000
     Max angular momentum in pseudopotentials (lmaxx) =  3

     Subspace diagonalization in iterative solution of the eigenvalue problem:
     a serial algorithm will be used


     G-vector sticks info
     --------------------
     sticks:   dense  smooth     PW     G-vecs:    dense   smooth      PW
     Sum         721     721    211                12627    12627    2109



     bravais-lattice index     =            2
     lattice parameter (alat)  =      10.2015  a.u.
     unit-cell volume          =     265.4191 (a.u.)^3
     number of atoms/cell      =            2
     number of atomic types    =            1
     number of electrons       =         8.00
     number of Kohn-Sham states=            8
     kinetic-energy cutoff     =      50.0000  Ry
     charge density cutoff     =     200.0000  Ry
     convergence threshold     =      1.0E-08
     mixing beta               =       0.7000
     number of iterations used =            8  plain     mixing
     Exchange-correlation      = SLA PZ NOGX NOGC ( 1  1  0  0 0 0)

     celldm(1)=  10.201500  celldm(2)=   0.000000  celldm(3)=   0.000000
     celldm(4)=   0.000000  celldm(5)=   0.000000  celldm(6)=   0.000000

     crystal axes: (cart. coord. in units of alat)
               a(1) = (  -0.500000   0.000000   0.500000 )  
               a(2) = (   0.000000   0.500000   0.500000 )  
               a(3) = (  -0.500000   0.500000   0.000000 )  

     reciprocal axes: (cart. coord. in units 2 pi/alat)
               b(1) = ( -1.000000 -1.000000  1.000000 )  
               b(2) = (  1.000000  1.000000  1.000000 )  
               b(3) = ( -1.000000  1.000000 -1.000000 )  


     PseudoPot. # 1 for Si read from file:
     /home/meyn/q-e-qe-7.1/pseudo/Si.pz-vbc.UPF
     MD5 check sum: 9f25e6ff280f3123e9b3a84715b2e9c9
     Pseudo is Norm-conserving, Zval =  4.0
     Generated by new atomic code, or converted to UPF format
     Using radial grid of  431 points,  2 beta functions with: 
                l(1) =   0
                l(2) =   1

     atomic species   valence    mass     pseudopotential
        Si             4.00    28.08600     Si( 1.00)

      6 Sym. Ops. (no inversion) found


                                    s                        frac. trans.

      isym =  1     identity                                     

 cryst.   s( 1) = (     1          0          0      )
                  (     0          1          0      )
                  (     0          0          1      )

 cart.    s( 1) = (  1.0000000  0.0000000  0.0000000 )
                  (  0.0000000  1.0000000  0.0000000 )
                  (  0.0000000  0.0000000  1.0000000 )


      isym =  2     120 deg rotation - cart. axis [-1,-1,-1]     

 cryst.   s( 2) = (    -1          0          1      )
                  (    -1          1          0      )
                  (    -1          0          0      )

 cart.    s( 2) = (  0.0000000  1.0000000  0.0000000 )
                  (  0.0000000  0.0000000  1.0000000 )
                  (  1.0000000  0.0000000  0.0000000 )


      isym =  3     120 deg rotation - cart. axis [1,1,1]        

 cryst.   s( 3) = (     0          0         -1      )
                  (     0          1         -1      )
                  (     1          0         -1      )

 cart.    s( 3) = (  0.0000000  0.0000000  1.0000000 )
                  (  1.0000000  0.0000000  0.0000000 )
                  (  0.0000000  1.0000000  0.0000000 )


      isym =  4     inv. 180 deg rotation - cart. axis [1,-1,0]  

 cryst.   s( 4) = (     1          0         -1      )
                  (     0          1         -1      )
                  (     0          0         -1      )

 cart.    s( 4) = (  0.0000000  1.0000000  0.0000000 )
                  (  1.0000000  0.0000000  0.0000000 )
                  (  0.0000000  0.0000000  1.0000000 )


      isym =  5     inv. 180 deg rotation - cart. axis [-1,0,1]  

 cryst.   s( 5) = (    -1          0          0      )
                  (    -1          1          0      )
                  (    -1          0          1      )

 cart.    s( 5) = (  0.0000000  0.0000000  1.0000000 )
                  (  0.0000000  1.0000000  0.0000000 )
                  (  1.0000000  0.0000000  0.0000000 )


      isym =  6     inv. 180 deg rotation - cart. axis [0,1,-1]  

 cryst.   s( 6) = (     0          0          1      )
                  (     0          1          0      )
                  (     1          0          0      )

 cart.    s( 6) = (  1.0000000  0.0000000  0.0000000 )
                  (  0.0000000  0.0000000  1.0000000 )
                  (  0.0000000  1.0000000  0.0000000 )


     point group C_3v (3m)  
     there are  3 classes
     the character table:

       E     2C3   3s_v 
A_1    1.00  1.00  1.00
A_2    1.00  1.00 -1.00
E      2.00 -1.00  0.00

     the symmetry operations in each class and the name of the first element:

     E        1
          identity                                               
     2C3      2    3
          120 deg rotation - cart. axis [-1,-1,-1]               
     3s_v     4    5    6
          inv. 180 deg rotation - cart. axis [1,-1,0]            

   Cartesian axes

     site n.     atom                  positions (alat units)
         1           Si  tau(   1) = (  -0.0000000  -0.0000000   0.0000000  )
         2           Si  tau(   2) = (   0.2500375   0.2500375   0.2500375  )

   Crystallographic axes

     site n.     atom                  positions (cryst. coord.)
         1           Si  tau(   1) = (  0.0000000  0.0000000  0.0000000  )
         2           Si  tau(   2) = ( -0.2500375  0.7501124 -0.2500375  )

     number of k points=    65
                       cart. coord. in units 2pi/alat
        k(    1) = (   0.0000000   0.0000000   0.0000000), wk =   0.0039062
        k(    2) = (  -0.1250000   0.1250000  -0.1250000), wk =   0.0234375
        k(    3) = (  -0.2500000   0.2500000  -0.2500000), wk =   0.0234375
        k(    4) = (  -0.3750000   0.3750000  -0.3750000), wk =   0.0234375
        k(    5) = (   0.5000000  -0.5000000   0.5000000), wk =   0.0117188
        k(    6) = (   0.0000000   0.2500000   0.0000000), wk =   0.0234375
        k(    7) = (  -0.1250000   0.3750000  -0.1250000), wk =   0.0234375
        k(    8) = (  -0.2500000   0.5000000  -0.2500000), wk =   0.0234375
        k(    9) = (   0.6250000  -0.3750000   0.6250000), wk =   0.0234375
        k(   10) = (   0.5000000  -0.2500000   0.5000000), wk =   0.0234375
        k(   11) = (   0.3750000  -0.1250000   0.3750000), wk =   0.0234375
        k(   12) = (   0.2500000   0.0000000   0.2500000), wk =   0.0234375
        k(   13) = (   0.0000000   0.5000000   0.0000000), wk =   0.0234375
        k(   14) = (  -0.1250000   0.6250000  -0.1250000), wk =   0.0234375
        k(   15) = (   0.7500000  -0.2500000   0.7500000), wk =   0.0234375
        k(   16) = (   0.6250000  -0.1250000   0.6250000), wk =   0.0234375
        k(   17) = (   0.5000000   0.0000000   0.5000000), wk =   0.0234375
        k(   18) = (   0.0000000   0.7500000   0.0000000), wk =   0.0234375
        k(   19) = (   0.8750000  -0.1250000   0.8750000), wk =   0.0234375
        k(   20) = (   0.7500000   0.0000000   0.7500000), wk =   0.0234375
        k(   21) = (   0.0000000  -1.0000000   0.0000000), wk =   0.0117188
        k(   22) = (  -0.2500000   0.5000000   0.0000000), wk =   0.0468750
        k(   23) = (   0.6250000  -0.3750000   0.8750000), wk =   0.0468750
        k(   24) = (   0.5000000  -0.2500000   0.7500000), wk =   0.0468750
        k(   25) = (   0.7500000  -0.2500000   1.0000000), wk =   0.0468750
        k(   26) = (   0.6250000  -0.1250000   0.8750000), wk =   0.0468750
        k(   27) = (   0.5000000   0.0000000   0.7500000), wk =   0.0468750
        k(   28) = (  -0.2500000  -1.0000000   0.0000000), wk =   0.0468750
        k(   29) = (  -0.5000000  -1.0000000   0.0000000), wk =   0.0234375
        k(   30) = (  -0.1250000  -0.1250000  -0.1250000), wk =   0.0078125
        k(   31) = (  -0.2500000  -0.2500000  -0.2500000), wk =   0.0078125
        k(   32) = (  -0.3750000  -0.3750000  -0.3750000), wk =   0.0078125
        k(   33) = (   0.5000000   0.5000000   0.5000000), wk =   0.0039062
        k(   34) = (   0.3750000   0.1250000  -0.1250000), wk =   0.0468750
        k(   35) = (  -0.3750000  -0.1250000  -0.1250000), wk =   0.0234375
        k(   36) = (   0.5000000   0.2500000  -0.2500000), wk =   0.0468750
        k(   37) = (  -0.5000000  -0.2500000  -0.2500000), wk =   0.0234375
        k(   38) = (  -0.3750000  -0.6250000   0.6250000), wk =   0.0468750
        k(   39) = (   0.3750000   0.6250000   0.6250000), wk =   0.0234375
        k(   40) = (  -0.2500000  -0.5000000   0.5000000), wk =   0.0468750
        k(   41) = (   0.2500000   0.5000000   0.5000000), wk =   0.0234375
        k(   42) = (  -0.1250000  -0.3750000   0.3750000), wk =   0.0468750
        k(   43) = (   0.1250000   0.3750000   0.3750000), wk =   0.0234375
        k(   44) = (   0.0000000  -0.2500000   0.2500000), wk =   0.0234375
        k(   45) = (   0.6250000   0.1250000  -0.1250000), wk =   0.0468750
        k(   46) = (  -0.6250000  -0.1250000  -0.1250000), wk =   0.0234375
        k(   47) = (  -0.2500000  -0.7500000   0.7500000), wk =   0.0468750
        k(   48) = (   0.2500000   0.7500000   0.7500000), wk =   0.0234375
        k(   49) = (  -0.1250000  -0.6250000   0.6250000), wk =   0.0468750
        k(   50) = (   0.1250000   0.6250000   0.6250000), wk =   0.0234375
        k(   51) = (   0.0000000  -0.5000000   0.5000000), wk =   0.0234375
        k(   52) = (  -0.1250000  -0.8750000   0.8750000), wk =   0.0468750
        k(   53) = (   0.1250000   0.8750000   0.8750000), wk =   0.0234375
        k(   54) = (   0.0000000  -0.7500000   0.7500000), wk =   0.0234375
        k(   55) = (   0.5000000   0.2500000   0.0000000), wk =   0.0468750
        k(   56) = (  -0.3750000  -0.6250000   0.8750000), wk =   0.0468750
        k(   57) = (   0.3750000   0.6250000   0.8750000), wk =   0.0468750
        k(   58) = (  -0.8750000  -0.3750000   0.6250000), wk =   0.0468750
        k(   59) = (   0.2500000   0.5000000   0.7500000), wk =   0.0234375
        k(   60) = (  -0.7500000  -0.2500000   0.5000000), wk =   0.0234375
        k(   61) = (  -0.2500000  -0.7500000   1.0000000), wk =   0.0468750
        k(   62) = (  -0.1250000  -0.6250000   0.8750000), wk =   0.0468750
        k(   63) = (   0.1250000   0.6250000   0.8750000), wk =   0.0468750
        k(   64) = (  -0.8750000  -0.1250000   0.6250000), wk =   0.0468750
        k(   65) = (   0.0000000  -0.5000000   0.7500000), wk =   0.0468750

                       cryst. coord.
        k(    1) = (   0.0000000   0.0000000   0.0000000), wk =   0.0039062
        k(    2) = (   0.0000000   0.0000000   0.1250000), wk =   0.0234375
        k(    3) = (   0.0000000   0.0000000   0.2500000), wk =   0.0234375
        k(    4) = (   0.0000000   0.0000000   0.3750000), wk =   0.0234375
        k(    5) = (   0.0000000   0.0000000  -0.5000000), wk =   0.0117188
        k(    6) = (   0.0000000   0.1250000   0.1250000), wk =   0.0234375
        k(    7) = (   0.0000000   0.1250000   0.2500000), wk =   0.0234375
        k(    8) = (   0.0000000   0.1250000   0.3750000), wk =   0.0234375
        k(    9) = (   0.0000000   0.1250000  -0.5000000), wk =   0.0234375
        k(   10) = (   0.0000000   0.1250000  -0.3750000), wk =   0.0234375
        k(   11) = (   0.0000000   0.1250000  -0.2500000), wk =   0.0234375
        k(   12) = (   0.0000000   0.1250000  -0.1250000), wk =   0.0234375
        k(   13) = (   0.0000000   0.2500000   0.2500000), wk =   0.0234375
        k(   14) = (   0.0000000   0.2500000   0.3750000), wk =   0.0234375
        k(   15) = (   0.0000000   0.2500000  -0.5000000), wk =   0.0234375
        k(   16) = (   0.0000000   0.2500000  -0.3750000), wk =   0.0234375
        k(   17) = (   0.0000000   0.2500000  -0.2500000), wk =   0.0234375
        k(   18) = (   0.0000000   0.3750000   0.3750000), wk =   0.0234375
        k(   19) = (   0.0000000   0.3750000  -0.5000000), wk =   0.0234375
        k(   20) = (   0.0000000   0.3750000  -0.3750000), wk =   0.0234375
        k(   21) = (   0.0000000  -0.5000000  -0.5000000), wk =   0.0117188
        k(   22) = (   0.1250000   0.2500000   0.3750000), wk =   0.0468750
        k(   23) = (   0.1250000   0.2500000  -0.5000000), wk =   0.0468750
        k(   24) = (   0.1250000   0.2500000  -0.3750000), wk =   0.0468750
        k(   25) = (   0.1250000   0.3750000  -0.5000000), wk =   0.0468750
        k(   26) = (   0.1250000   0.3750000  -0.3750000), wk =   0.0468750
        k(   27) = (   0.1250000   0.3750000  -0.2500000), wk =   0.0468750
        k(   28) = (   0.1250000  -0.5000000  -0.3750000), wk =   0.0468750
        k(   29) = (   0.2500000  -0.5000000  -0.2500000), wk =   0.0234375
        k(   30) = (   0.0000000  -0.1250000   0.0000000), wk =   0.0078125
        k(   31) = (   0.0000000  -0.2500000   0.0000000), wk =   0.0078125
        k(   32) = (   0.0000000  -0.3750000   0.0000000), wk =   0.0078125
        k(   33) = (   0.0000000   0.5000000   0.0000000), wk =   0.0039062
        k(   34) = (  -0.2500000   0.0000000  -0.1250000), wk =   0.0468750
        k(   35) = (   0.1250000  -0.1250000   0.1250000), wk =   0.0234375
        k(   36) = (  -0.3750000   0.0000000  -0.1250000), wk =   0.0468750
        k(   37) = (   0.1250000  -0.2500000   0.1250000), wk =   0.0234375
        k(   38) = (   0.5000000   0.0000000  -0.1250000), wk =   0.0468750
        k(   39) = (   0.1250000   0.6250000   0.1250000), wk =   0.0234375
        k(   40) = (   0.3750000   0.0000000  -0.1250000), wk =   0.0468750
        k(   41) = (   0.1250000   0.5000000   0.1250000), wk =   0.0234375
        k(   42) = (   0.2500000   0.0000000  -0.1250000), wk =   0.0468750
        k(   43) = (   0.1250000   0.3750000   0.1250000), wk =   0.0234375
        k(   44) = (   0.1250000   0.0000000  -0.1250000), wk =   0.0234375
        k(   45) = (  -0.3750000   0.0000000  -0.2500000), wk =   0.0468750
        k(   46) = (   0.2500000  -0.1250000   0.2500000), wk =   0.0234375
        k(   47) = (   0.5000000   0.0000000  -0.2500000), wk =   0.0468750
        k(   48) = (   0.2500000   0.7500000   0.2500000), wk =   0.0234375
        k(   49) = (   0.3750000   0.0000000  -0.2500000), wk =   0.0468750
        k(   50) = (   0.2500000   0.6250000   0.2500000), wk =   0.0234375
        k(   51) = (   0.2500000   0.0000000  -0.2500000), wk =   0.0234375
        k(   52) = (   0.5000000   0.0000000  -0.3750000), wk =   0.0468750
        k(   53) = (   0.3750000   0.8750000   0.3750000), wk =   0.0234375
        k(   54) = (   0.3750000   0.0000000  -0.3750000), wk =   0.0234375
        k(   55) = (  -0.2500000   0.1250000  -0.1250000), wk =   0.0468750
        k(   56) = (   0.6250000   0.1250000  -0.1250000), wk =   0.0468750
        k(   57) = (   0.2500000   0.7500000   0.1250000), wk =   0.0468750
        k(   58) = (   0.7500000   0.1250000   0.2500000), wk =   0.0468750
        k(   59) = (   0.2500000   0.6250000   0.1250000), wk =   0.0234375
        k(   60) = (   0.6250000   0.1250000   0.2500000), wk =   0.0234375
        k(   61) = (   0.6250000   0.1250000  -0.2500000), wk =   0.0468750
        k(   62) = (   0.5000000   0.1250000  -0.2500000), wk =   0.0468750
        k(   63) = (   0.3750000   0.7500000   0.2500000), wk =   0.0468750
        k(   64) = (   0.7500000   0.2500000   0.3750000), wk =   0.0468750
        k(   65) = (   0.3750000   0.1250000  -0.2500000), wk =   0.0468750

     Dense  grid:    12627 G-vectors     FFT dimensions: (  36,  36,  36)

     Dynamical RAM for                 wfc:       0.19 MB

     Dynamical RAM for     wfc (w. buffer):      12.77 MB

     Dynamical RAM for           str. fact:       0.19 MB

     Dynamical RAM for           local pot:       0.00 MB

     Dynamical RAM for          nlocal pot:       0.19 MB

     Dynamical RAM for                qrad:       0.16 MB

     Dynamical RAM for          rho,v,vnew:       1.65 MB

     Dynamical RAM for               rhoin:       0.55 MB

     Dynamical RAM for            rho*nmix:       3.08 MB

     Dynamical RAM for           G-vectors:       0.82 MB

     Dynamical RAM for          h,s,v(r/c):       0.05 MB

     Dynamical RAM for          <psi|beta>:       0.00 MB

     Dynamical RAM for                 psi:       0.77 MB

     Dynamical RAM for                hpsi:       0.77 MB

     Dynamical RAM for      wfcinit/wfcrot:       0.39 MB

     Estimated static dynamical RAM per process >      21.58 MB

     Estimated max dynamical RAM per process >      23.17 MB

     Initial potential from superposition of free atoms

     starting charge    7.99901, renormalised to    8.00000
     Starting wfcs are    8 randomized atomic wfcs

     total cpu time spent up to now is        0.7 secs

     Self-consistent Calculation

     iteration #  1     ecut=    50.00 Ry     beta= 0.70
     Davidson diagonalization with overlap
     ethr =  1.00E-02,  avg # of iterations =  3.9

     Threshold (ethr) on eigenvalues was too large:
     Diagonalizing with lowered threshold

     Davidson diagonalization with overlap
     ethr =  8.06E-04,  avg # of iterations =  1.1

     total cpu time spent up to now is        4.4 secs

     total energy              =     -15.84935972 Ry
     Harris-Foulkes estimate   =     -15.87091914 Ry
     estimated scf accuracy    <       0.06296644 Ry

     iteration #  2     ecut=    50.00 Ry     beta= 0.70
     Davidson diagonalization with overlap
     ethr =  7.87E-04,  avg # of iterations =  1.0

     total cpu time spent up to now is        5.8 secs

     total energy              =     -15.85316080 Ry
     Harris-Foulkes estimate   =     -15.85337379 Ry
     estimated scf accuracy    <       0.00182874 Ry

     iteration #  3     ecut=    50.00 Ry     beta= 0.70
     Davidson diagonalization with overlap
     ethr =  2.29E-05,  avg # of iterations =  2.8

     total cpu time spent up to now is        7.3 secs

     total energy              =     -15.85326933 Ry
     Harris-Foulkes estimate   =     -15.85327318 Ry
     estimated scf accuracy    <       0.00005359 Ry

     iteration #  4     ecut=    50.00 Ry     beta= 0.70
     Davidson diagonalization with overlap
     ethr =  6.70E-07,  avg # of iterations =  2.6

     total cpu time spent up to now is        9.0 secs

     total energy              =     -15.85328025 Ry
     Harris-Foulkes estimate   =     -15.85328011 Ry
     estimated scf accuracy    <       0.00000020 Ry

     iteration #  5     ecut=    50.00 Ry     beta= 0.70
     Davidson diagonalization with overlap
     ethr =  2.47E-09,  avg # of iterations =  2.4

     total cpu time spent up to now is       10.7 secs

     End of self-consistent calculation

          k = 0.0000 0.0000 0.0000 (  1591 PWs)   bands (ev):

    -5.8232   6.2244   6.2244   6.2274   8.7939   8.7956   8.7956   9.6873

     occupation numbers 
     1.0000   1.0000   1.0000   1.0000   0.0000   0.0000   0.0000   0.0000

          k =-0.1250 0.1250-0.1250 (  1570 PWs)   bands (ev):

    -5.6159   4.6235   5.9310   5.9334   8.7446   9.2235   9.2251  10.9864

     occupation numbers 
     1.0000   1.0000   1.0000   1.0000   0.0000   0.0000   0.0000   0.0000

          k =-0.2500 0.2500-0.2500 (  1582 PWs)   bands (ev):

    -5.0100   2.2716   5.4546   5.4567   8.2701   9.7400   9.7421  13.1382

     occupation numbers 
     1.0000   1.0000   1.0000   1.0000   0.0000   0.0000   0.0000   0.0000

          k =-0.3750 0.3750-0.3750 (  1592 PWs)   bands (ev):

    -4.0959   0.2190   5.1243   5.1264   7.9075   9.6719   9.6743  13.9913

     occupation numbers 
     1.0000   1.0000   1.0000   1.0000   0.0000   0.0000   0.0000   0.0000

          k = 0.5000-0.5000 0.5000 (  1568 PWs)   bands (ev):

    -3.4335  -0.8325   5.0115   5.0136   7.7805   9.5551   9.5575  13.8176

     occupation numbers 
     1.0000   1.0000   1.0000   1.0000   0.0000   0.0000   0.0000   0.0000

          k = 0.0000 0.2500 0.0000 (  1571 PWs)   bands (ev):

    -5.5461   4.9147   5.4027   5.4040   8.2154   9.9476   9.9481  10.6734

     occupation numbers 
     1.0000   1.0000   1.0000   1.0000   0.0000   0.0000   0.0000   0.0000

          k =-0.1250 0.3750-0.1250 (  1581 PWs)   bands (ev):

    -5.0697   2.9974   4.8832   4.9714   8.3483   9.9692  10.7152  10.9465

     occupation numbers 
     1.0000   1.0000   1.0000   1.0000   0.0000   0.0000   0.0000   0.0000

          k =-0.2500 0.5000-0.2500 (  1588 PWs)   bands (ev):

    -4.2385   0.9037   4.3719   4.6123   8.4516   9.8800  10.7014  11.6695

     occupation numbers 
     1.0000   1.0000   1.0000   1.0000   0.0000   0.0000   0.0000   0.0000

          k = 0.6250-0.3750 0.6250 (  1581 PWs)   bands (ev):

    -3.3496  -0.5957   3.9180   4.6392   8.4070   9.7304  10.3283  13.5767

     occupation numbers 
     1.0000   1.0000   1.0000   1.0000   0.0000   0.0000   0.0000   0.0000

          k = 0.5000-0.2500 0.5000 (  1586 PWs)   bands (ev):

    -3.6039  -0.2135   3.7294   4.9422   8.5888   9.8272  10.0956  14.0998

     occupation numbers 
     1.0000   1.0000   1.0000   1.0000   0.0000   0.0000   0.0000   0.0000

          k = 0.3750-0.1250 0.3750 (  1579 PWs)   bands (ev):

    -4.5513   1.5755   3.8755   5.4426   8.9622   9.9140  10.0642  12.5080

     occupation numbers 
     1.0000   1.0000   1.0000   1.0000   0.0000   0.0000   0.0000   0.0000

          k = 0.2500 0.0000 0.2500 (  1564 PWs)   bands (ev):

    -5.2743   3.5462   4.5604   5.9308   9.3047   9.3617   9.5702  11.7882

     occupation numbers 
     1.0000   1.0000   1.0000   1.0000   0.0000   0.0000   0.0000   0.0000

          k = 0.0000 0.5000 0.0000 (  1587 PWs)   bands (ev):

    -4.7244   2.7347   4.3016   4.3025   7.3021   9.3111  12.0097  12.0098

     occupation numbers 
     1.0000   1.0000   1.0000   1.0000   0.0000   0.0000   0.0000   0.0000

          k =-0.1250 0.6250-0.1250 (  1586 PWs)   bands (ev):

    -4.0019   1.2914   3.5040   3.9786   7.5215   9.0694  12.2440  12.5190

     occupation numbers 
     1.0000   1.0000   1.0000   1.0000   0.0000   0.0000   0.0000   0.0000

          k = 0.7500-0.2500 0.7500 (  1592 PWs)   bands (ev):

    -3.0529  -0.1837   2.6227   3.9829   7.6866  10.6374  11.9903  12.1634

     occupation numbers 
     1.0000   1.0000   1.0000   1.0000   0.0000   0.0000   0.0000   0.0000

          k = 0.6250-0.1250 0.6250 (  1584 PWs)   bands (ev):

    -2.8389  -0.4522   2.1507   4.3082   8.0217  11.6668  11.7250  13.1869

     occupation numbers 
     1.0000   1.0000   1.0000   1.0000   0.0000   0.0000   0.0000   0.0000

          k = 0.5000 0.0000 0.5000 (  1576 PWs)   bands (ev):

    -3.7419   0.7375   2.3873   4.8781   8.6528  11.0407  11.3285  12.3720

     occupation numbers 
     1.0000   1.0000   1.0000   1.0000   0.0000   0.0000   0.0000   0.0000

          k = 0.0000 0.7500 0.0000 (  1600 PWs)   bands (ev):

    -3.3909   0.4876   3.5730   3.5738   6.7684   7.6886  14.2916  14.2917

     occupation numbers 
     1.0000   1.0000   1.0000   1.0000   0.0000   0.0000   0.0000   0.0000

          k = 0.8750-0.1250 0.8750 (  1594 PWs)   bands (ev):

    -2.4765  -0.6104   2.7136   3.4959   7.0448   8.1365  14.5209  14.5914

     occupation numbers 
     1.0000   1.0000   1.0000   1.0000   0.0000   0.0000   0.0000   0.0000

          k = 0.7500 0.0000 0.7500 (  1580 PWs)   bands (ev):

    -2.0173  -1.0190   1.8159   3.7588   7.3605  10.3202  13.7352  14.2238

     occupation numbers 
     1.0000   1.0000   1.0000   1.0000   0.0000   0.0000   0.0000   0.0000

          k = 0.0000-1.0000 0.0000 (  1588 PWs)   bands (ev):

    -1.6138  -1.6125   3.3232   3.3239   6.8539   6.8548  16.3757  16.3760

     occupation numbers 
     1.0000   1.0000   1.0000   1.0000   0.0000   0.0000   0.0000   0.0000

          k =-0.2500 0.5000 0.0000 (  1576 PWs)   bands (ev):

    -4.4717   1.9406   3.4537   4.7770   8.6466  10.1466  10.3827  11.7431

     occupation numbers 
     1.0000   1.0000   1.0000   1.0000   0.0000   0.0000   0.0000   0.0000

          k = 0.6250-0.3750 0.8750 (  1587 PWs)   bands (ev):

    -3.5640   0.3590   2.8435   4.2600   9.0768   9.7662  11.2332  12.1736

     occupation numbers 
     1.0000   1.0000   1.0000   1.0000   0.0000   0.0000   0.0000   0.0000

          k = 0.5000-0.2500 0.7500 (  1570 PWs)   bands (ev):

    -2.8889  -0.6157   2.7188   4.0226   9.2946   9.3080  12.1528  13.3225

     occupation numbers 
     1.0000   1.0000   1.0000   1.0000   0.0000   0.0000   0.0000   0.0000

          k = 0.7500-0.2500 1.0000 (  1604 PWs)   bands (ev):

    -3.1858   0.2662   2.7902   3.4067   8.1281   8.8173  11.9929  14.2378

     occupation numbers 
     1.0000   1.0000   1.0000   1.0000   0.0000   0.0000   0.0000   0.0000

          k = 0.6250-0.1250 0.8750 (  1589 PWs)   bands (ev):

    -2.2874  -0.7188   2.0697   3.1992   8.5676  10.4665  11.5159  13.6731

     occupation numbers 
     1.0000   1.0000   1.0000   1.0000   0.0000   0.0000   0.0000   0.0000

          k = 0.5000 0.0000 0.7500 (  1576 PWs)   bands (ev):

    -2.6448  -0.3511   1.8964   3.5857   9.0567  10.7514  11.4336  13.2495

     occupation numbers 
     1.0000   1.0000   1.0000   1.0000   0.0000   0.0000   0.0000   0.0000

          k =-0.2500-1.0000 0.0000 (  1598 PWs)   bands (ev):

    -1.5295  -1.5281   2.7318   2.7326   8.1414   8.1423  14.0841  14.0849

     occupation numbers 
     1.0000   1.0000   1.0000   1.0000   0.0000   0.0000   0.0000   0.0000

          k =-0.5000-1.0000 0.0000 (  1604 PWs)   bands (ev):

    -1.4358  -1.4344   2.2766   2.2775  10.4391  10.4406  11.2517  11.2518

     occupation numbers 
     1.0000   1.0000   1.0000   1.0000   0.0000   0.0000   0.0000   0.0000

          k =-0.1250-0.1250-0.1250 (  1570 PWs)   bands (ev):

    -5.6159   4.6252   5.9312   5.9312   8.7438   9.2246   9.2246  10.9868

     occupation numbers 
     1.0000   1.0000   1.0000   1.0000   0.0000   0.0000   0.0000   0.0000

          k =-0.2500-0.2500-0.2500 (  1582 PWs)   bands (ev):

    -5.0102   2.2730   5.4550   5.4550   8.2695   9.7405   9.7405  13.1388

     occupation numbers 
     1.0000   1.0000   1.0000   1.0000   0.0000   0.0000   0.0000   0.0000

          k =-0.3750-0.3750-0.3750 (  1592 PWs)   bands (ev):

    -4.0963   0.2205   5.1249   5.1249   7.9070   9.6723   9.6723  13.9907

     occupation numbers 
     1.0000   1.0000   1.0000   1.0000   0.0000   0.0000   0.0000   0.0000

          k = 0.5000 0.5000 0.5000 (  1568 PWs)   bands (ev):

    -3.4344  -0.8306   5.0121   5.0121   7.7800   9.5556   9.5556  13.8169

     occupation numbers 
     1.0000   1.0000   1.0000   1.0000   0.0000   0.0000   0.0000   0.0000

          k = 0.3750 0.1250-0.1250 (  1581 PWs)   bands (ev):

    -5.0698   2.9979   4.8843   4.9695   8.3486   9.9699  10.7143  10.9458

     occupation numbers 
     1.0000   1.0000   1.0000   1.0000   0.0000   0.0000   0.0000   0.0000

          k =-0.3750-0.1250-0.1250 (  1581 PWs)   bands (ev):

    -5.0698   2.9991   4.8833   4.9692   8.3483   9.9698  10.7140  10.9459

     occupation numbers 
     1.0000   1.0000   1.0000   1.0000   0.0000   0.0000   0.0000   0.0000

          k = 0.5000 0.2500-0.2500 (  1588 PWs)   bands (ev):

    -4.2386   0.9039   4.3703   4.6135   8.4522   9.8807  10.7001  11.6686

     occupation numbers 
     1.0000   1.0000   1.0000   1.0000   0.0000   0.0000   0.0000   0.0000

          k =-0.5000-0.2500-0.2500 (  1588 PWs)   bands (ev):

    -4.2388   0.9053   4.3701   4.6126   8.4514   9.8801  10.6997  11.6697

     occupation numbers 
     1.0000   1.0000   1.0000   1.0000   0.0000   0.0000   0.0000   0.0000

          k =-0.3750-0.6250 0.6250 (  1581 PWs)   bands (ev):

    -3.3497  -0.5956   3.9168   4.6405   8.4077   9.7309  10.3268  13.5760

     occupation numbers 
     1.0000   1.0000   1.0000   1.0000   0.0000   0.0000   0.0000   0.0000

          k = 0.3750 0.6250 0.6250 (  1581 PWs)   bands (ev):

    -3.3505  -0.5938   3.9166   4.6396   8.4069   9.7301  10.3266  13.5768

     occupation numbers 
     1.0000   1.0000   1.0000   1.0000   0.0000   0.0000   0.0000   0.0000

          k =-0.2500-0.5000 0.5000 (  1586 PWs)   bands (ev):

    -3.6038  -0.2137   3.7284   4.9437   8.5894   9.8278  10.0939  14.1003

     occupation numbers 
     1.0000   1.0000   1.0000   1.0000   0.0000   0.0000   0.0000   0.0000

          k = 0.2500 0.5000 0.5000 (  1586 PWs)   bands (ev):

    -3.6044  -0.2120   3.7282   4.9426   8.5886   9.8269  10.0939  14.1001

     occupation numbers 
     1.0000   1.0000   1.0000   1.0000   0.0000   0.0000   0.0000   0.0000

          k =-0.1250-0.3750 0.3750 (  1579 PWs)   bands (ev):

    -4.5512   1.5751   3.8748   5.4442   8.9626   9.9123  10.0650  12.5082

     occupation numbers 
     1.0000   1.0000   1.0000   1.0000   0.0000   0.0000   0.0000   0.0000

          k = 0.1250 0.3750 0.3750 (  1579 PWs)   bands (ev):

    -4.5514   1.5766   3.8745   5.4429   8.9619   9.9127  10.0640  12.5087

     occupation numbers 
     1.0000   1.0000   1.0000   1.0000   0.0000   0.0000   0.0000   0.0000

          k = 0.0000-0.2500 0.2500 (  1564 PWs)   bands (ev):

    -5.2742   3.5448   4.5606   5.9326   9.3051   9.3605   9.5709  11.7884

     occupation numbers 
     1.0000   1.0000   1.0000   1.0000   0.0000   0.0000   0.0000   0.0000

          k = 0.6250 0.1250-0.1250 (  1586 PWs)   bands (ev):

    -4.0019   1.2919   3.5025   3.9795   7.5222   9.0689  12.2438  12.5181

     occupation numbers 
     1.0000   1.0000   1.0000   1.0000   0.0000   0.0000   0.0000   0.0000

          k =-0.6250-0.1250-0.1250 (  1586 PWs)   bands (ev):

    -4.0021   1.2927   3.5024   3.9787   7.5217   9.0696  12.2435  12.5176

     occupation numbers 
     1.0000   1.0000   1.0000   1.0000   0.0000   0.0000   0.0000   0.0000

          k =-0.2500-0.7500 0.7500 (  1592 PWs)   bands (ev):

    -3.0529  -0.1834   2.6214   3.9838   7.6877  10.6362  11.9906  12.1622

     occupation numbers 
     1.0000   1.0000   1.0000   1.0000   0.0000   0.0000   0.0000   0.0000

          k = 0.2500 0.7500 0.7500 (  1592 PWs)   bands (ev):

    -3.0535  -0.1819   2.6213   3.9830   7.6867  10.6371  11.9904  12.1619

     occupation numbers 
     1.0000   1.0000   1.0000   1.0000   0.0000   0.0000   0.0000   0.0000

          k =-0.1250-0.6250 0.6250 (  1584 PWs)   bands (ev):

    -2.8386  -0.4527   2.1499   4.3092   8.0228  11.6660  11.7235  13.1870

     occupation numbers 
     1.0000   1.0000   1.0000   1.0000   0.0000   0.0000   0.0000   0.0000

          k = 0.1250 0.6250 0.6250 (  1584 PWs)   bands (ev):

    -2.8395  -0.4508   2.1497   4.3083   8.0218  11.6656  11.7236  13.1884

     occupation numbers 
     1.0000   1.0000   1.0000   1.0000   0.0000   0.0000   0.0000   0.0000

          k = 0.0000-0.5000 0.5000 (  1576 PWs)   bands (ev):

    -3.7416   0.7362   2.3874   4.8793   8.6538  11.0396  11.3289  12.3714

     occupation numbers 
     1.0000   1.0000   1.0000   1.0000   0.0000   0.0000   0.0000   0.0000

          k =-0.1250-0.8750 0.8750 (  1594 PWs)   bands (ev):

    -2.4765  -0.6102   2.7126   3.4966   7.0457   8.1356  14.5200  14.5912

     occupation numbers 
     1.0000   1.0000   1.0000   1.0000   0.0000   0.0000   0.0000   0.0000

          k = 0.1250 0.8750 0.8750 (  1594 PWs)   bands (ev):

    -2.4768  -0.6097   2.7131   3.4959   7.0449   8.1365  14.5197  14.5910

     occupation numbers 
     1.0000   1.0000   1.0000   1.0000   0.0000   0.0000   0.0000   0.0000

          k = 0.0000-0.7500 0.7500 (  1580 PWs)   bands (ev):

    -2.0163  -1.0203   1.8153   3.7596   7.3615  10.3193  13.7342  14.2249

     occupation numbers 
     1.0000   1.0000   1.0000   1.0000   0.0000   0.0000   0.0000   0.0000

          k = 0.5000 0.2500 0.0000 (  1576 PWs)   bands (ev):

    -4.4718   1.9419   3.4535   4.7757   8.6469  10.1469  10.3814  11.7432

     occupation numbers 
     1.0000   1.0000   1.0000   1.0000   0.0000   0.0000   0.0000   0.0000

          k =-0.3750-0.6250 0.8750 (  1587 PWs)   bands (ev):

    -3.5642   0.3596   2.8435   4.2592   9.0780   9.7650  11.2328  12.1736

     occupation numbers 
     1.0000   1.0000   1.0000   1.0000   0.0000   0.0000   0.0000   0.0000

          k = 0.3750 0.6250 0.8750 (  1587 PWs)   bands (ev):

    -3.5644   0.3607   2.8427   4.2593   9.0769   9.7651  11.2338  12.1726

     occupation numbers 
     1.0000   1.0000   1.0000   1.0000   0.0000   0.0000   0.0000   0.0000

          k =-0.8750-0.3750 0.6250 (  1587 PWs)   bands (ev):

    -3.5640   0.3592   2.8427   4.2607   9.0775   9.7662  11.2328  12.1723

     occupation numbers 
     1.0000   1.0000   1.0000   1.0000   0.0000   0.0000   0.0000   0.0000

          k = 0.2500 0.5000 0.7500 (  1570 PWs)   bands (ev):

    -2.8898  -0.6137   2.7178   4.0225   9.2938   9.3078  12.1518  13.3244

     occupation numbers 
     1.0000   1.0000   1.0000   1.0000   0.0000   0.0000   0.0000   0.0000

          k =-0.7500-0.2500 0.5000 (  1570 PWs)   bands (ev):

    -2.8888  -0.6157   2.7177   4.0238   9.2939   9.3095  12.1514  13.3228

     occupation numbers 
     1.0000   1.0000   1.0000   1.0000   0.0000   0.0000   0.0000   0.0000

          k =-0.2500-0.7500 1.0000 (  1604 PWs)   bands (ev):

    -3.1860   0.2671   2.7901   3.4060   8.1284   8.8171  11.9920  14.2378

     occupation numbers 
     1.0000   1.0000   1.0000   1.0000   0.0000   0.0000   0.0000   0.0000

          k =-0.1250-0.6250 0.8750 (  1589 PWs)   bands (ev):

    -2.2875  -0.7186   2.0691   3.1996   8.5686  10.4653  11.5153  13.6735

     occupation numbers 
     1.0000   1.0000   1.0000   1.0000   0.0000   0.0000   0.0000   0.0000

          k = 0.1250 0.6250 0.8750 (  1589 PWs)   bands (ev):

    -2.2882  -0.7173   2.0690   3.1992   8.5677  10.4661  11.5156  13.6736

     occupation numbers 
     1.0000   1.0000   1.0000   1.0000   0.0000   0.0000   0.0000   0.0000

          k =-0.8750-0.1250 0.6250 (  1589 PWs)   bands (ev):

    -2.2872  -0.7190   2.0687   3.2002   8.5686  10.4652  11.5162  13.6730

     occupation numbers 
     1.0000   1.0000   1.0000   1.0000   0.0000   0.0000   0.0000   0.0000

          k = 0.0000-0.5000 0.7500 (  1576 PWs)   bands (ev):

    -2.6443  -0.3524   1.8962   3.5866   9.0578  10.7509  11.4336  13.2486

     occupation numbers 
     1.0000   1.0000   1.0000   1.0000   0.0000   0.0000   0.0000   0.0000

     highest occupied, lowest unoccupied level (ev):     6.2274    6.7684

!    total energy              =     -15.85328040 Ry
     Harris-Foulkes estimate   =     -15.85328039 Ry
     estimated scf accuracy    <          8.4E-09 Ry

     The total energy is the sum of the following terms:

     one-electron contribution =       4.78083020 Ry
     hartree contribution      =       1.07994866 Ry
     xc contribution           =      -4.81678566 Ry
     ewald contribution        =     -16.89727360 Ry

     convergence has been achieved in   5 iterations

     Writing output data file silicon.save/

     init_run     :      0.60s CPU      0.63s WALL (       1 calls)
     electrons    :      9.95s CPU     10.06s WALL (       1 calls)

     Called by init_run:
     wfcinit      :      0.57s CPU      0.59s WALL (       1 calls)
     wfcinit:atom :      0.02s CPU      0.02s WALL (      65 calls)
     wfcinit:wfcr :      0.50s CPU      0.51s WALL (      65 calls)
     potinit      :      0.00s CPU      0.01s WALL (       1 calls)
     hinit0       :      0.02s CPU      0.03s WALL (       1 calls)

     Called by electrons:
     c_bands      :      8.40s CPU      8.50s WALL (       6 calls)
     sum_band     :      1.52s CPU      1.53s WALL (       6 calls)
     v_of_rho     :      0.02s CPU      0.02s WALL (       6 calls)
     v_h          :      0.01s CPU      0.01s WALL (       6 calls)
     v_xc         :      0.01s CPU      0.01s WALL (       6 calls)
     mix_rho      :      0.01s CPU      0.01s WALL (       6 calls)

     Called by c_bands:
     init_us_2    :      0.17s CPU      0.17s WALL (     845 calls)
     cegterg      :      8.23s CPU      8.33s WALL (     390 calls)

     Called by sum_band:

     Called by *egterg:
     h_psi        :      7.53s CPU      7.63s WALL (    1346 calls)
     g_psi        :      0.05s CPU      0.05s WALL (     891 calls)
     cdiaghg      :      0.13s CPU      0.13s WALL (    1216 calls)
     cegterg:over :      0.40s CPU      0.40s WALL (     891 calls)
     cegterg:upda :      0.28s CPU      0.28s WALL (     891 calls)
     cegterg:last :      0.14s CPU      0.14s WALL (     391 calls)

     Called by h_psi:
     h_psi:pot    :      7.48s CPU      7.58s WALL (    1346 calls)
     h_psi:calbec :      0.17s CPU      0.17s WALL (    1346 calls)
     vloc_psi     :      7.16s CPU      7.25s WALL (    1346 calls)
     add_vuspsi   :      0.15s CPU      0.15s WALL (    1346 calls)

     General routines
     calbec       :      0.16s CPU      0.17s WALL (    1346 calls)
     fft          :      0.01s CPU      0.02s WALL (      18 calls)
     ffts         :      0.00s CPU      0.00s WALL (       6 calls)
     fftw         :      7.42s CPU      7.52s WALL (   19916 calls)

     Parallel routines

     PWSCF        :     10.59s CPU     10.75s WALL


   This run was terminated on:  18: 4:39  30Aug2023            

=------------------------------------------------------------------------------=
   JOB DONE.
=------------------------------------------------------------------------------=
