
     Program PWSCF v.6.4.1 starts on 22Sep2023 at 19:53:53 

     This program is part of the open-source Quantum ESPRESSO suite
     for quantum simulation of materials; please cite
         "P. Giannozzi et al., J. Phys.:Condens. Matter 21 395502 (2009);
         "P. Giannozzi et al., J. Phys.:Condens. Matter 29 465901 (2017);
          URL http://www.quantum-espresso.org", 
     in publications or presentations arising from this work. More details at
     http://www.quantum-espresso.org/quote

     Parallel version (MPI), running on     1 processors

     MPI processes distributed on     1 nodes
     Waiting for input...
     Reading input from standard input

     Current dimensions of program PWSCF are:
     Max number of different atomic species (ntypx) = 10
     Max number of k-points (npk) =  40000
     Max angular momentum in pseudopotentials (lmaxx) =  3
               file C.pbe-rrkjus.UPF: wavefunction(s)  2S 2P renormalized

     Subspace diagonalization in iterative solution of the eigenvalue problem:
     a serial algorithm will be used


     G-vector sticks info
     --------------------
     sticks:   dense  smooth     PW     G-vecs:    dense   smooth      PW
     Sum         595     241     85                35435     8973    1713



     bravais-lattice index     =            4
     lattice parameter (alat)  =       4.6540  a.u.
     unit-cell volume          =     261.8973 (a.u.)^3
     number of atoms/cell      =            2
     number of atomic types    =            1
     number of electrons       =         8.00
     number of Kohn-Sham states=            8
     kinetic-energy cutoff     =      40.0000  Ry
     charge density cutoff     =     400.0000  Ry
     convergence threshold     =      1.0E-08
     mixing beta               =       0.7000
     number of iterations used =            8  plain     mixing
     Exchange-correlation      = SLA PW PBE PBE ( 1  4  3  4 0 0)

     celldm(1)=   4.654000  celldm(2)=   0.000000  celldm(3)=   3.000000
     celldm(4)=   0.000000  celldm(5)=   0.000000  celldm(6)=   0.000000

     crystal axes: (cart. coord. in units of alat)
               a(1) = (   1.000000   0.000000   0.000000 )  
               a(2) = (  -0.500000   0.866025   0.000000 )  
               a(3) = (   0.000000   0.000000   3.000000 )  

     reciprocal axes: (cart. coord. in units 2 pi/alat)
               b(1) = (  1.000000  0.577350 -0.000000 )  
               b(2) = (  0.000000  1.154701  0.000000 )  
               b(3) = (  0.000000 -0.000000  0.333333 )  


     PseudoPot. # 1 for C  read from file:
     /home/meyn/q-e-qe-7.1/pseudo/C.pbe-rrkjus.UPF
     MD5 check sum: c9ac5a99bc85b198593446162950cd17
     Pseudo is Ultrasoft, Zval =  4.0
     Generated by new atomic code, or converted to UPF format
     Using radial grid of  627 points,  4 beta functions with: 
                l(1) =   0
                l(2) =   0
                l(3) =   1
                l(4) =   1
     Q(r) pseudized with 0 coefficients 


     atomic species   valence    mass     pseudopotential
        C              4.00    12.01070     C ( 1.00)

     24 Sym. Ops., with inversion, found (12 have fractional translation)



   Cartesian axes

     site n.     atom                  positions (alat units)
         1           C   tau(   1) = (   0.0000000   0.0000000   0.0000000  )
         2           C   tau(   2) = (   0.0000000   0.5773503   0.0000000  )

     number of k points=    12  gaussian smearing, width (Ry)=  0.0100
                       cart. coord. in units 2pi/alat
        k(    1) = (   0.0000000   0.0000000   0.0000000), wk =   0.0246914
        k(    2) = (   0.0000000   0.1283001   0.0000000), wk =   0.1481481
        k(    3) = (   0.0000000   0.2566001   0.0000000), wk =   0.1481481
        k(    4) = (   0.0000000   0.3849002   0.0000000), wk =   0.1481481
        k(    5) = (   0.0000000   0.5132002   0.0000000), wk =   0.1481481
        k(    6) = (   0.1111111   0.1924501   0.0000000), wk =   0.1481481
        k(    7) = (   0.1111111   0.3207501   0.0000000), wk =   0.2962963
        k(    8) = (   0.1111111   0.4490502   0.0000000), wk =   0.2962963
        k(    9) = (   0.1111111   0.5773503   0.0000000), wk =   0.1481481
        k(   10) = (   0.2222222   0.3849002   0.0000000), wk =   0.1481481
        k(   11) = (   0.2222222   0.5132002   0.0000000), wk =   0.2962963
        k(   12) = (   0.3333333   0.5773503   0.0000000), wk =   0.0493827

     Dense  grid:    35435 G-vectors     FFT dimensions: (  30,  30,  90)

     Smooth grid:     8973 G-vectors     FFT dimensions: (  24,  24,  60)

     Estimated max dynamical RAM per process >      46.81 MB

     Initial potential from superposition of free atoms

     starting charge    7.99989, renormalised to    8.00000
     Starting wfcs are    8 randomized atomic wfcs

     total cpu time spent up to now is        0.4 secs

     Self-consistent Calculation

     iteration #  1     ecut=    40.00 Ry     beta= 0.70
     Davidson diagonalization with overlap
     ethr =  1.00E-02,  avg # of iterations =  4.4

     total cpu time spent up to now is        0.8 secs

     total energy              =     -22.75781152 Ry
     Harris-Foulkes estimate   =     -22.88167587 Ry
     estimated scf accuracy    <       0.20568519 Ry

     iteration #  2     ecut=    40.00 Ry     beta= 0.70
     Davidson diagonalization with overlap
     ethr =  2.57E-03,  avg # of iterations =  3.1

     total cpu time spent up to now is        1.2 secs

     total energy              =     -22.78898301 Ry
     Harris-Foulkes estimate   =     -22.78912322 Ry
     estimated scf accuracy    <       0.00253968 Ry

     iteration #  3     ecut=    40.00 Ry     beta= 0.70
     Davidson diagonalization with overlap
     ethr =  3.17E-05,  avg # of iterations =  4.4

     total cpu time spent up to now is        1.5 secs

     total energy              =     -22.78934823 Ry
     Harris-Foulkes estimate   =     -22.78931652 Ry
     estimated scf accuracy    <       0.00013683 Ry

     iteration #  4     ecut=    40.00 Ry     beta= 0.70
     Davidson diagonalization with overlap
     ethr =  1.71E-06,  avg # of iterations =  2.6

     negative rho (up, down):  5.691E-08 0.000E+00

     total cpu time spent up to now is        1.8 secs

     total energy              =     -22.78935341 Ry
     Harris-Foulkes estimate   =     -22.78935252 Ry
     estimated scf accuracy    <       0.00000097 Ry

     iteration #  5     ecut=    40.00 Ry     beta= 0.70
     Davidson diagonalization with overlap
     ethr =  1.21E-08,  avg # of iterations =  2.2

     negative rho (up, down):  4.448E-08 0.000E+00

     total cpu time spent up to now is        2.2 secs

     total energy              =     -22.78935367 Ry
     Harris-Foulkes estimate   =     -22.78935366 Ry
     estimated scf accuracy    <       0.00000003 Ry

     iteration #  6     ecut=    40.00 Ry     beta= 0.70
     Davidson diagonalization with overlap
     ethr =  3.23E-10,  avg # of iterations =  2.0

     negative rho (up, down):  4.767E-08 0.000E+00

     total cpu time spent up to now is        2.4 secs

     End of self-consistent calculation

          k = 0.0000 0.0000 0.0000 (  1133 PWs)   bands (ev):

   -18.6263  -6.7390  -2.1789  -2.1789   3.7812   7.1160   9.1906   9.1906

          k = 0.0000 0.1283 0.0000 (  1120 PWs)   bands (ev):

   -18.3349  -6.3906  -3.2878  -2.7506   4.1787   7.4957   9.2354   9.8862

          k = 0.0000 0.2566 0.0000 (  1114 PWs)   bands (ev):

   -17.4665  -5.8264  -5.3633  -3.9039   5.3704   8.5233   9.0113   9.0462

          k = 0.0000 0.3849 0.0000 (  1118 PWs)   bands (ev):

   -16.0420  -8.7489  -4.9227  -3.7380   5.8163   7.3457   8.6482  10.5147

          k = 0.0000 0.5132 0.0000 (  1128 PWs)   bands (ev):

   -14.1373 -11.4897  -5.4857  -1.8942   3.1169   8.3562  10.1135  12.9566

          k = 0.1111 0.1925 0.0000 (  1133 PWs)   bands (ev):

   -17.7550  -5.7021  -4.8365  -3.8929   4.9740   8.2465   9.6951   9.8257

          k = 0.1111 0.3208 0.0000 (  1124 PWs)   bands (ev):

   -16.6084  -7.2780  -5.2730  -4.3660   6.5610   7.0724   9.7220  10.0147

          k = 0.1111 0.4491 0.0000 (  1117 PWs)   bands (ev):

   -14.9329 -10.0322  -6.1514  -2.5382   4.2219   8.9177   9.7109  11.7766

          k = 0.1111 0.5774 0.0000 (  1114 PWs)   bands (ev):

   -13.1887 -12.1756  -6.4505  -1.2022   2.4985   9.5489  11.9440  12.1074

          k = 0.2222 0.3849 0.0000 (  1105 PWs)   bands (ev):

   -15.2082  -8.7880  -7.2822  -2.7839   4.8476   8.5336  11.2484  12.3039

          k = 0.2222 0.5132 0.0000 (  1110 PWs)   bands (ev):

   -13.3589 -10.8995  -8.2781  -0.9078   2.6094  11.2327  12.1547  12.4008

          k = 0.3333 0.5774 0.0000 (  1137 PWs)   bands (ev):

   -11.6997 -11.6997  -9.6980   0.8960   0.8960  11.5850  13.6189  13.6189

     the Fermi energy is     0.8960 ev

!    total energy              =     -22.78935368 Ry
     Harris-Foulkes estimate   =     -22.78935368 Ry
     estimated scf accuracy    <          9.8E-10 Ry

     The total energy is the sum of the following terms:

     one-electron contribution =     -56.44050167 Ry
     hartree contribution      =      30.36155997 Ry
     xc contribution           =      -7.02078295 Ry
     ewald contribution        =      10.31064959 Ry
     smearing contrib. (-TS)   =      -0.00027861 Ry

     convergence has been achieved in   6 iterations

     Writing output data file graphene.save/

     init_run     :      0.26s CPU      0.29s WALL (       1 calls)
     electrons    :      1.98s CPU      2.03s WALL (       1 calls)

     Called by init_run:
     wfcinit      :      0.08s CPU      0.09s WALL (       1 calls)
     potinit      :      0.06s CPU      0.06s WALL (       1 calls)
     hinit0       :      0.08s CPU      0.10s WALL (       1 calls)

     Called by electrons:
     c_bands      :      1.25s CPU      1.26s WALL (       6 calls)
     sum_band     :      0.33s CPU      0.35s WALL (       6 calls)
     v_of_rho     :      0.27s CPU      0.28s WALL (       7 calls)
     newd         :      0.13s CPU      0.13s WALL (       7 calls)
     mix_rho      :      0.03s CPU      0.04s WALL (       6 calls)

     Called by c_bands:
     init_us_2    :      0.03s CPU      0.03s WALL (     156 calls)
     cegterg      :      1.21s CPU      1.22s WALL (      72 calls)

     Called by sum_band:
     sum_band:bec :      0.00s CPU      0.00s WALL (      72 calls)
     addusdens    :      0.09s CPU      0.10s WALL (       6 calls)

     Called by *egterg:
     h_psi        :      1.04s CPU      1.05s WALL (     308 calls)
     s_psi        :      0.04s CPU      0.04s WALL (     308 calls)
     g_psi        :      0.01s CPU      0.01s WALL (     224 calls)
     cdiaghg      :      0.03s CPU      0.04s WALL (     296 calls)

     Called by h_psi:
     h_psi:pot    :      1.04s CPU      1.05s WALL (     308 calls)
     h_psi:calbec :      0.05s CPU      0.05s WALL (     308 calls)
     vloc_psi     :      0.95s CPU      0.96s WALL (     308 calls)
     add_vuspsi   :      0.04s CPU      0.04s WALL (     308 calls)

     General routines
     calbec       :      0.06s CPU      0.06s WALL (     380 calls)
     fft          :      0.19s CPU      0.20s WALL (      88 calls)
     ffts         :      0.01s CPU      0.01s WALL (      13 calls)
     fftw         :      0.96s CPU      0.96s WALL (    3888 calls)
     interpolate  :      0.03s CPU      0.03s WALL (       7 calls)

     Parallel routines

     PWSCF        :      2.32s CPU      2.47s WALL


   This run was terminated on:  19:53:56  22Sep2023            

=------------------------------------------------------------------------------=
   JOB DONE.
=------------------------------------------------------------------------------=
