
     Program PWSCF v.6.4.1 starts on  5Sep2023 at 15:21:57 

     This program is part of the open-source Quantum ESPRESSO suite
     for quantum simulation of materials; please cite
         "P. Giannozzi et al., J. Phys.:Condens. Matter 21 395502 (2009);
         "P. Giannozzi et al., J. Phys.:Condens. Matter 29 465901 (2017);
          URL http://www.quantum-espresso.org", 
     in publications or presentations arising from this work. More details at
     http://www.quantum-espresso.org/quote

     Parallel version (MPI), running on     1 processors

     MPI processes distributed on     1 nodes
     Waiting for input...
     Reading input from standard input

     Current dimensions of program PWSCF are:
     Max number of different atomic species (ntypx) = 10
     Max number of k-points (npk) =  40000
     Max angular momentum in pseudopotentials (lmaxx) =  3

     Subspace diagonalization in iterative solution of the eigenvalue problem:
     a serial algorithm will be used


     G-vector sticks info
     --------------------
     sticks:   dense  smooth     PW     G-vecs:    dense   smooth      PW
     Sum        2395     955    265               458467   116145   17461



     bravais-lattice index     =            4
     lattice parameter (alat)  =       7.2983  a.u.
     unit-cell volume          =    1638.1431 (a.u.)^3
     number of atoms/cell      =            2
     number of atomic types    =            1
     number of electrons       =         8.00
     number of Kohn-Sham states=           12
     kinetic-energy cutoff     =      65.0000  Ry
     charge density cutoff     =     650.0000  Ry
     convergence threshold     =      1.0E-07
     mixing beta               =       0.4000
     number of iterations used =            8  plain     mixing
     Exchange-correlation      = SLA  PW   PSX  PSC ( 1  4 10  8 0 0)

     celldm(1)=   7.298330  celldm(2)=   0.000000  celldm(3)=   4.865760
     celldm(4)=   0.000000  celldm(5)=   0.000000  celldm(6)=   0.000000

     crystal axes: (cart. coord. in units of alat)
               a(1) = (   1.000000   0.000000   0.000000 )  
               a(2) = (  -0.500000   0.866025   0.000000 )  
               a(3) = (   0.000000   0.000000   4.865760 )  

     reciprocal axes: (cart. coord. in units 2 pi/alat)
               b(1) = (  1.000000  0.577350 -0.000000 )  
               b(2) = (  0.000000  1.154701  0.000000 )  
               b(3) = (  0.000000 -0.000000  0.205518 )  


     PseudoPot. # 1 for Si read from file:
     /home/meyn/q-e-qe-7.1/pseudo/si_pbesol_v1.uspp.F.UPF
     MD5 check sum: ef58ba74faed4df802eb8a9742fc00a8
     Pseudo is Ultrasoft + core correction, Zval =  4.0
     Generated by new atomic code, or converted to UPF format
     Using radial grid of  899 points,  6 beta functions with: 
                l(1) =   0
                l(2) =   0
                l(3) =   1
                l(4) =   1
                l(5) =   2
                l(6) =   2
     Q(r) pseudized with  8 coefficients,  rinner =    0.900   0.900   0.900
                                                       0.900   0.900

     atomic species   valence    mass     pseudopotential
        Si             4.00    28.08600     Si( 1.00)

     No symmetry found


                                    s                        frac. trans.

      isym =  1     identity                                     

 cryst.   s( 1) = (     1          0          0      )
                  (     0          1          0      )
                  (     0          0          1      )

 cart.    s( 1) = (  1.0000000  0.0000000  0.0000000 )
                  (  0.0000000  1.0000000  0.0000000 )
                  (  0.0000000  0.0000000  1.0000000 )


     point group C_1 (1)    
     there are  1 classes
     the character table:

       E    
A      1.00

     the symmetry operations in each class and the name of the first element:

     E        1
          identity                                               

   Cartesian axes

     site n.     atom                  positions (alat units)
         1           Si  tau(   1) = (  -0.0076799   0.0272322   0.0513706  )
         2           Si  tau(   2) = (   0.4873120   0.3130163   0.1792859  )

   Crystallographic axes

     site n.     atom                  positions (cryst. coord.)
         1           Si  tau(   1) = (  0.0080426  0.0314450  0.0105576  )
         2           Si  tau(   2) = (  0.6680321  0.3614401  0.0368464  )

     number of k points=    52  Fermi-Dirac smearing, width (Ry)=  0.0110
                       cart. coord. in units 2pi/alat
        k(    1) = (   0.0000000   0.0000000   0.0000000), wk =   0.0200000
        k(    2) = (   0.0000000   0.1154701   0.0000000), wk =   0.0400000
        k(    3) = (   0.0000000   0.2309401   0.0000000), wk =   0.0400000
        k(    4) = (   0.0000000   0.3464102   0.0000000), wk =   0.0400000
        k(    5) = (   0.0000000   0.4618802   0.0000000), wk =   0.0400000
        k(    6) = (   0.0000000  -0.5773503   0.0000000), wk =   0.0200000
        k(    7) = (   0.1000000   0.1732051   0.0000000), wk =   0.0400000
        k(    8) = (   0.1000000   0.2886751   0.0000000), wk =   0.0400000
        k(    9) = (   0.1000000   0.4041452   0.0000000), wk =   0.0400000
        k(   10) = (   0.1000000   0.5196152   0.0000000), wk =   0.0400000
        k(   11) = (   0.2000000   0.3464102   0.0000000), wk =   0.0400000
        k(   12) = (   0.2000000   0.4618802   0.0000000), wk =   0.0400000
        k(   13) = (   0.2000000   0.5773503   0.0000000), wk =   0.0400000
        k(   14) = (   0.3000000   0.5196152   0.0000000), wk =   0.0400000
        k(   15) = (  -0.1000000   0.0577350   0.0000000), wk =   0.0400000
        k(   16) = (   0.1000000   0.0577350   0.0000000), wk =   0.0400000
        k(   17) = (  -0.2000000   0.1154701   0.0000000), wk =   0.0400000
        k(   18) = (   0.2000000   0.1154701   0.0000000), wk =   0.0400000
        k(   19) = (  -0.3000000   0.1732051   0.0000000), wk =   0.0400000
        k(   20) = (   0.3000000   0.1732051   0.0000000), wk =   0.0400000
        k(   21) = (  -0.4000000   0.2309401   0.0000000), wk =   0.0400000
        k(   22) = (   0.4000000   0.2309401   0.0000000), wk =   0.0400000
        k(   23) = (   0.5000000  -0.2886751   0.0000000), wk =   0.0200000
        k(   24) = (  -0.5000000  -0.2886751   0.0000000), wk =   0.0200000
        k(   25) = (  -0.1000000   0.1732051   0.0000000), wk =   0.0400000
        k(   26) = (   0.2000000   0.0000000   0.0000000), wk =   0.0400000
        k(   27) = (  -0.1000000   0.2886751   0.0000000), wk =   0.0400000
        k(   28) = (  -0.2000000   0.2309401   0.0000000), wk =   0.0400000
        k(   29) = (   0.3000000   0.0577350   0.0000000), wk =   0.0400000
        k(   30) = (  -0.2000000  -0.2309401   0.0000000), wk =   0.0400000
        k(   31) = (   0.3000000  -0.0577350   0.0000000), wk =   0.0400000
        k(   32) = (  -0.1000000   0.4041452   0.0000000), wk =   0.0400000
        k(   33) = (  -0.3000000   0.2886751   0.0000000), wk =   0.0400000
        k(   34) = (   0.4000000   0.1154701   0.0000000), wk =   0.0400000
        k(   35) = (  -0.3000000  -0.2886751   0.0000000), wk =   0.0400000
        k(   36) = (   0.4000000  -0.1154701   0.0000000), wk =   0.0400000
        k(   37) = (  -0.1000000   0.5196152   0.0000000), wk =   0.0400000
        k(   38) = (  -0.4000000   0.3464102   0.0000000), wk =   0.0400000
        k(   39) = (   0.5000000   0.1732051   0.0000000), wk =   0.0400000
        k(   40) = (  -0.4000000  -0.3464102   0.0000000), wk =   0.0400000
        k(   41) = (   0.5000000  -0.1732051   0.0000000), wk =   0.0400000
        k(   42) = (  -0.2000000   0.3464102   0.0000000), wk =   0.0400000
        k(   43) = (   0.4000000   0.0000000   0.0000000), wk =   0.0400000
        k(   44) = (  -0.2000000   0.4618802   0.0000000), wk =   0.0400000
        k(   45) = (  -0.3000000   0.4041452   0.0000000), wk =   0.0400000
        k(   46) = (   0.5000000   0.0577350   0.0000000), wk =   0.0400000
        k(   47) = (  -0.3000000  -0.4041452   0.0000000), wk =   0.0400000
        k(   48) = (   0.5000000  -0.0577350   0.0000000), wk =   0.0400000
        k(   49) = (  -0.4000000   0.4618802   0.0000000), wk =   0.0400000
        k(   50) = (   0.6000000   0.1154701   0.0000000), wk =   0.0400000
        k(   51) = (  -0.3000000   0.5196152   0.0000000), wk =   0.0400000
        k(   52) = (   0.6000000  -0.0000000   0.0000000), wk =   0.0400000

                       cryst. coord.
        k(    1) = (   0.0000000   0.0000000   0.0000000), wk =   0.0200000
        k(    2) = (   0.0000000   0.1000000   0.0000000), wk =   0.0400000
        k(    3) = (   0.0000000   0.2000000   0.0000000), wk =   0.0400000
        k(    4) = (   0.0000000   0.3000000   0.0000000), wk =   0.0400000
        k(    5) = (   0.0000000   0.4000000   0.0000000), wk =   0.0400000
        k(    6) = (   0.0000000  -0.5000000   0.0000000), wk =   0.0200000
        k(    7) = (   0.1000000   0.1000000   0.0000000), wk =   0.0400000
        k(    8) = (   0.1000000   0.2000000   0.0000000), wk =   0.0400000
        k(    9) = (   0.1000000   0.3000000   0.0000000), wk =   0.0400000
        k(   10) = (   0.1000000   0.4000000   0.0000000), wk =   0.0400000
        k(   11) = (   0.2000000   0.2000000   0.0000000), wk =   0.0400000
        k(   12) = (   0.2000000   0.3000000   0.0000000), wk =   0.0400000
        k(   13) = (   0.2000000   0.4000000   0.0000000), wk =   0.0400000
        k(   14) = (   0.3000000   0.3000000   0.0000000), wk =   0.0400000
        k(   15) = (  -0.1000000   0.1000000   0.0000000), wk =   0.0400000
        k(   16) = (   0.1000000   0.0000000   0.0000000), wk =   0.0400000
        k(   17) = (  -0.2000000   0.2000000   0.0000000), wk =   0.0400000
        k(   18) = (   0.2000000   0.0000000   0.0000000), wk =   0.0400000
        k(   19) = (  -0.3000000   0.3000000   0.0000000), wk =   0.0400000
        k(   20) = (   0.3000000   0.0000000   0.0000000), wk =   0.0400000
        k(   21) = (  -0.4000000   0.4000000   0.0000000), wk =   0.0400000
        k(   22) = (   0.4000000   0.0000000   0.0000000), wk =   0.0400000
        k(   23) = (   0.5000000  -0.5000000   0.0000000), wk =   0.0200000
        k(   24) = (  -0.5000000   0.0000000   0.0000000), wk =   0.0200000
        k(   25) = (  -0.1000000   0.2000000   0.0000000), wk =   0.0400000
        k(   26) = (   0.2000000  -0.1000000   0.0000000), wk =   0.0400000
        k(   27) = (  -0.1000000   0.3000000   0.0000000), wk =   0.0400000
        k(   28) = (  -0.2000000   0.3000000   0.0000000), wk =   0.0400000
        k(   29) = (   0.3000000  -0.1000000   0.0000000), wk =   0.0400000
        k(   30) = (  -0.2000000  -0.1000000   0.0000000), wk =   0.0400000
        k(   31) = (   0.3000000  -0.2000000   0.0000000), wk =   0.0400000
        k(   32) = (  -0.1000000   0.4000000   0.0000000), wk =   0.0400000
        k(   33) = (  -0.3000000   0.4000000   0.0000000), wk =   0.0400000
        k(   34) = (   0.4000000  -0.1000000   0.0000000), wk =   0.0400000
        k(   35) = (  -0.3000000  -0.1000000   0.0000000), wk =   0.0400000
        k(   36) = (   0.4000000  -0.3000000   0.0000000), wk =   0.0400000
        k(   37) = (  -0.1000000   0.5000000   0.0000000), wk =   0.0400000
        k(   38) = (  -0.4000000   0.5000000   0.0000000), wk =   0.0400000
        k(   39) = (   0.5000000  -0.1000000   0.0000000), wk =   0.0400000
        k(   40) = (  -0.4000000  -0.1000000   0.0000000), wk =   0.0400000
        k(   41) = (   0.5000000  -0.4000000   0.0000000), wk =   0.0400000
        k(   42) = (  -0.2000000   0.4000000   0.0000000), wk =   0.0400000
        k(   43) = (   0.4000000  -0.2000000   0.0000000), wk =   0.0400000
        k(   44) = (  -0.2000000   0.5000000   0.0000000), wk =   0.0400000
        k(   45) = (  -0.3000000   0.5000000   0.0000000), wk =   0.0400000
        k(   46) = (   0.5000000  -0.2000000   0.0000000), wk =   0.0400000
        k(   47) = (  -0.3000000  -0.2000000   0.0000000), wk =   0.0400000
        k(   48) = (   0.5000000  -0.3000000   0.0000000), wk =   0.0400000
        k(   49) = (  -0.4000000   0.6000000   0.0000000), wk =   0.0400000
        k(   50) = (   0.6000000  -0.2000000   0.0000000), wk =   0.0400000
        k(   51) = (  -0.3000000   0.6000000   0.0000000), wk =   0.0400000
        k(   52) = (   0.6000000  -0.3000000   0.0000000), wk =   0.0400000

     Dense  grid:   458467 G-vectors     FFT dimensions: (  60,  60, 300)

     Smooth grid:   116145 G-vectors     FFT dimensions: (  40,  40, 192)

     Dynamical RAM for                 wfc:       2.65 MB

     Dynamical RAM for     wfc (w. buffer):     140.69 MB

     Dynamical RAM for           str. fact:       7.00 MB

     Dynamical RAM for           local pot:       0.00 MB

     Dynamical RAM for          nlocal pot:       7.96 MB

     Dynamical RAM for                qrad:       2.38 MB

     Dynamical RAM for          rho,v,vnew:      45.71 MB

     Dynamical RAM for               rhoin:      15.24 MB

     Dynamical RAM for            rho*nmix:     111.93 MB

     Dynamical RAM for           G-vectors:      27.12 MB

     Dynamical RAM for          h,s,v(r/c):       0.11 MB

     Dynamical RAM for          <psi|beta>:       0.01 MB

     Dynamical RAM for                 psi:      10.62 MB

     Dynamical RAM for                hpsi:      10.62 MB

     Dynamical RAM for                spsi:      10.62 MB

     Dynamical RAM for      wfcinit/wfcrot:       5.31 MB

     Dynamical RAM for           addusdens:    1315.18 MB

     Estimated static dynamical RAM per process >     413.20 MB

     Estimated max dynamical RAM per process >       1.69 GB

     Initial potential from superposition of free atoms

     starting charge    7.99870, renormalised to    8.00000

     negative rho (up, down):  1.472E-04 0.000E+00
     Starting wfcs are    8 randomized atomic wfcs +    4 random wfcs

     total cpu time spent up to now is       13.8 secs

     Self-consistent Calculation

     iteration #  1     ecut=    65.00 Ry     beta= 0.40
     Davidson diagonalization with overlap
     ethr =  1.00E-02,  avg # of iterations =  7.3

     Threshold (ethr) on eigenvalues was too large:
     Diagonalizing with lowered threshold

     Davidson diagonalization with overlap
     ethr =  8.63E-04,  avg # of iterations =  1.5

     negative rho (up, down):  1.502E-04 0.000E+00

     total cpu time spent up to now is       94.3 secs

     total energy              =     -19.01501645 Ry
     Harris-Foulkes estimate   =     -19.03692106 Ry
     estimated scf accuracy    <       0.06793702 Ry

     iteration #  2     ecut=    65.00 Ry     beta= 0.40
     Davidson diagonalization with overlap
     ethr =  8.49E-04,  avg # of iterations =  2.3

     negative rho (up, down):  1.629E-04 0.000E+00

     total cpu time spent up to now is      122.1 secs

     total energy              =     -19.01259513 Ry
     Harris-Foulkes estimate   =     -19.01786125 Ry
     estimated scf accuracy    <       0.01399851 Ry

     iteration #  3     ecut=    65.00 Ry     beta= 0.40
