### Running on host: LAPTOP-C0A2DPIS

     Program PWSCF v.6.4.1 starts on 22Sep2023 at 21:36:27 

     This program is part of the open-source Quantum ESPRESSO suite
     for quantum simulation of materials; please cite
         "P. Giannozzi et al., J. Phys.:Condens. Matter 21 395502 (2009);
         "P. Giannozzi et al., J. Phys.:Condens. Matter 29 465901 (2017);
          URL http://www.quantum-espresso.org", 
     in publications or presentations arising from this work. More details at
     http://www.quantum-espresso.org/quote

     Parallel version (MPI), running on     1 processors

     MPI processes distributed on     1 nodes
     Reading input from silicene_scf_kpoints-3.in

     Current dimensions of program PWSCF are:
     Max number of different atomic species (ntypx) = 10
     Max number of k-points (npk) =  40000
     Max angular momentum in pseudopotentials (lmaxx) =  3
     Message from routine read_upf::
     Pseudo file Si.pbe-n-rrkjus_psl.1.0.0.UPF has been fixed on the fly.
To avoid this message in the future, permanently fix 
 your pseudo files following these instructions: 
https://gitlab.com/QEF/q-e/blob/master/upftools/how_to_fix_upf.md

     Subspace diagonalization in iterative solution of the eigenvalue problem:
     a serial algorithm will be used

     Message from routine setup:
     DEPRECATED: symmetry with ibrav=0, use correct ibrav instead

     G-vector sticks info
     --------------------
     sticks:   dense  smooth     PW     G-vecs:    dense   smooth      PW
     Sum         859     433    127                64713    22975    3821



     bravais-lattice index     =            0
     lattice parameter (alat)  =       7.2375  a.u.
     unit-cell volume          =    1032.2806 (a.u.)^3
     number of atoms/cell      =            2
     number of atomic types    =            1
     number of electrons       =         8.00
     number of Kohn-Sham states=            8
     kinetic-energy cutoff     =      30.0000  Ry
     charge density cutoff     =     240.0000  Ry
     convergence threshold     =      4.0E-10
     mixing beta               =       0.4000
     number of iterations used =            8  plain     mixing
     Exchange-correlation      = PBE ( 1  4  3  4 0 0)

     celldm(1)=   7.237514  celldm(2)=   0.000000  celldm(3)=   0.000000
     celldm(4)=   0.000000  celldm(5)=   0.000000  celldm(6)=   0.000000

     crystal axes: (cart. coord. in units of alat)
               a(1) = (   0.502620  -0.864507   0.000000 )  
               a(2) = (   0.502620   0.864507   0.000000 )  
               a(3) = (   0.000000   0.000000   3.133218 )  

     reciprocal axes: (cart. coord. in units 2 pi/alat)
               b(1) = (  0.994786 -0.578364  0.000000 )  
               b(2) = (  0.994786  0.578364 -0.000000 )  
               b(3) = ( -0.000000  0.000000  0.319161 )  


     PseudoPot. # 1 for Si read from file:
     /home/meyn/q-e-qe-7.1/pseudo/Si.pbe-n-rrkjus_psl.1.0.0.UPF
     MD5 check sum: 56671f82560c68743c116fe4c72cdc4c
     Pseudo is Ultrasoft + core correction, Zval =  4.0
     Generated using "atomic" code by A. Dal Corso v.5.1.2
     Using radial grid of 1141 points,  6 beta functions with: 
                l(1) =   0
                l(2) =   0
                l(3) =   1
                l(4) =   1
                l(5) =   2
                l(6) =   2
     Q(r) pseudized with 0 coefficients 


     atomic species   valence    mass     pseudopotential
        Si             4.00    28.08550     Si( 1.00)

      4 Sym. Ops. (no inversion) found


                                    s                        frac. trans.

      isym =  1     identity                                     

 cryst.   s( 1) = (     1          0          0      )
                  (     0          1          0      )
                  (     0          0          1      )

 cart.    s( 1) = (  1.0000000  0.0000000  0.0000000 )
                  (  0.0000000  1.0000000  0.0000000 )
                  (  0.0000000  0.0000000  1.0000000 )


      isym =  2     180 deg rotation - cart. axis [0,1,0]        

 cryst.   s( 2) = (     0         -1          0      )
                  (    -1          0          0      )
                  (     0          0         -1      )

 cart.    s( 2) = ( -1.0000000  0.0000000  0.0000000 )
                  (  0.0000000  1.0000000  0.0000000 )
                  (  0.0000000  0.0000000 -1.0000000 )


      isym =  3     inv. 180 deg rotation - cart. axis [0,0,1]   

 cryst.   s( 3) = (     1          0          0      )
                  (     0          1          0      )
                  (     0          0         -1      )

 cart.    s( 3) = (  1.0000000  0.0000000  0.0000000 )
                  (  0.0000000  1.0000000  0.0000000 )
                  (  0.0000000  0.0000000 -1.0000000 )


      isym =  4     inv. 180 deg rotation - cart. axis [1,0,0]   

 cryst.   s( 4) = (     0         -1          0      )
                  (    -1          0          0      )
                  (     0          0          1      )

 cart.    s( 4) = ( -1.0000000  0.0000000  0.0000000 )
                  (  0.0000000  1.0000000  0.0000000 )
                  (  0.0000000  0.0000000  1.0000000 )


   Cartesian axes

     site n.     atom                  positions (alat units)
         1           Si  tau(   1) = (   0.0000000   0.0000000   0.0000000  )
         2           Si  tau(   2) = (   0.5026205   0.2939324   0.0000000  )

   Crystallographic axes

     site n.     atom                  positions (cryst. coord.)
         1           Si  tau(   1) = (  0.0000000  0.0000000  0.0000000  )
         2           Si  tau(   2) = (  0.3300000  0.6700000  0.0000000  )

     number of k points=     8  Marzari-Vanderbilt smearing, width (Ry)=  0.0147
                       cart. coord. in units 2pi/alat
        k(    1) = (   0.0000000   0.0000000   0.0000000), wk =   0.0740741
        k(    2) = (   0.0000000   0.0000000   0.1063869), wk =   0.1481481
        k(    3) = (   0.3315955   0.1927881   0.0000000), wk =   0.2962963
        k(    4) = (   0.3315955   0.1927881   0.1063869), wk =   0.5925926
        k(    5) = (   0.6631909   0.0000000   0.0000000), wk =   0.1481481
        k(    6) = (   0.6631909   0.0000000   0.1063869), wk =   0.2962963
        k(    7) = (  -0.0000000  -0.3855761   0.0000000), wk =   0.1481481
        k(    8) = (  -0.0000000  -0.3855761   0.1063869), wk =   0.2962963

                       cryst. coord.
        k(    1) = (   0.0000000   0.0000000   0.0000000), wk =   0.0740741
        k(    2) = (   0.0000000   0.0000000   0.3333333), wk =   0.1481481
        k(    3) = (   0.0000000   0.3333333   0.0000000), wk =   0.2962963
        k(    4) = (   0.0000000   0.3333333   0.3333333), wk =   0.5925926
        k(    5) = (   0.3333333   0.3333333   0.0000000), wk =   0.1481481
        k(    6) = (   0.3333333   0.3333333   0.3333333), wk =   0.2962963
        k(    7) = (   0.3333333  -0.3333333   0.0000000), wk =   0.1481481
        k(    8) = (   0.3333333  -0.3333333   0.3333333), wk =   0.2962963

     Dense  grid:    64713 G-vectors     FFT dimensions: (  36,  36, 120)

     Smooth grid:    22975 G-vectors     FFT dimensions: (  25,  25,  80)

     Dynamical RAM for                 wfc:       0.35 MB

     Dynamical RAM for     wfc (w. buffer):       3.15 MB

     Dynamical RAM for           str. fact:       0.99 MB

     Dynamical RAM for           local pot:       0.00 MB

     Dynamical RAM for          nlocal pot:       1.57 MB

     Dynamical RAM for                qrad:       1.43 MB

     Dynamical RAM for          rho,v,vnew:       6.52 MB

     Dynamical RAM for               rhoin:       2.17 MB

     Dynamical RAM for            rho*nmix:      15.80 MB

     Dynamical RAM for           G-vectors:       3.88 MB

     Dynamical RAM for          h,s,v(r/c):       0.05 MB

     Dynamical RAM for          <psi|beta>:       0.00 MB

     Dynamical RAM for                 psi:       1.40 MB

     Dynamical RAM for                hpsi:       1.40 MB

     Dynamical RAM for                spsi:       1.40 MB

     Dynamical RAM for      wfcinit/wfcrot:       0.70 MB

     Dynamical RAM for           addusdens:     185.64 MB

     Dynamical RAM for          addusforce:     188.12 MB

     Dynamical RAM for         addusstress:     198.48 MB

     Estimated static dynamical RAM per process >      43.42 MB

     Estimated max dynamical RAM per process >     241.90 MB

     Initial potential from superposition of free atoms

     starting charge    7.99888, renormalised to    8.00000

     negative rho (up, down):  3.014E-06 0.000E+00
     Starting wfcs are    8 randomized atomic wfcs

     total cpu time spent up to now is        1.7 secs

     Self-consistent Calculation

     iteration #  1     ecut=    30.00 Ry     beta= 0.40
     Davidson diagonalization with overlap
     ethr =  1.00E-02,  avg # of iterations =  5.4

     negative rho (up, down):  6.375E-08 0.000E+00

     total cpu time spent up to now is        2.5 secs

     total energy              =     -22.71001031 Ry
     Harris-Foulkes estimate   =     -22.73301855 Ry
     estimated scf accuracy    <       0.08427909 Ry

     iteration #  2     ecut=    30.00 Ry     beta= 0.40
     Davidson diagonalization with overlap
     ethr =  1.05E-03,  avg # of iterations =  1.0

     negative rho (up, down):  1.298E-06 0.000E+00

     total cpu time spent up to now is        3.2 secs

     total energy              =     -22.70708777 Ry
     Harris-Foulkes estimate   =     -22.71363011 Ry
     estimated scf accuracy    <       0.01996378 Ry

     iteration #  3     ecut=    30.00 Ry     beta= 0.40
     Davidson diagonalization with overlap
     ethr =  2.50E-04,  avg # of iterations =  2.8

     negative rho (up, down):  1.673E-06 0.000E+00

     total cpu time spent up to now is        4.0 secs

     total energy              =     -22.70924247 Ry
     Harris-Foulkes estimate   =     -22.70945782 Ry
     estimated scf accuracy    <       0.00079637 Ry

     iteration #  4     ecut=    30.00 Ry     beta= 0.40
     Davidson diagonalization with overlap
     ethr =  9.95E-06,  avg # of iterations =  5.0

     negative rho (up, down):  9.789E-07 0.000E+00

     total cpu time spent up to now is        4.9 secs

     total energy              =     -22.70940134 Ry
     Harris-Foulkes estimate   =     -22.70945088 Ry
     estimated scf accuracy    <       0.00008404 Ry

     iteration #  5     ecut=    30.00 Ry     beta= 0.40
     Davidson diagonalization with overlap
     ethr =  1.05E-06,  avg # of iterations =  4.2

     negative rho (up, down):  7.310E-07 0.000E+00

     total cpu time spent up to now is        5.7 secs

     total energy              =     -22.70942031 Ry
     Harris-Foulkes estimate   =     -22.70942259 Ry
     estimated scf accuracy    <       0.00000535 Ry

     iteration #  6     ecut=    30.00 Ry     beta= 0.40
     Davidson diagonalization with overlap
     ethr =  6.69E-08,  avg # of iterations =  2.0

     negative rho (up, down):  6.523E-07 0.000E+00

     total cpu time spent up to now is        6.6 secs

     total energy              =     -22.70942153 Ry
     Harris-Foulkes estimate   =     -22.70942136 Ry
     estimated scf accuracy    <       0.00000032 Ry

     iteration #  7     ecut=    30.00 Ry     beta= 0.40
     Davidson diagonalization with overlap
     ethr =  4.02E-09,  avg # of iterations =  1.2

     negative rho (up, down):  6.239E-07 0.000E+00

     total cpu time spent up to now is        7.3 secs

     total energy              =     -22.70942156 Ry
     Harris-Foulkes estimate   =     -22.70942156 Ry
     estimated scf accuracy    <       0.00000008 Ry

     iteration #  8     ecut=    30.00 Ry     beta= 0.40
     Davidson diagonalization with overlap
     ethr =  9.38E-10,  avg # of iterations =  2.0

     negative rho (up, down):  6.180E-07 0.000E+00

     total cpu time spent up to now is        8.0 secs

     total energy              =     -22.70942158 Ry
     Harris-Foulkes estimate   =     -22.70942157 Ry
     estimated scf accuracy    <          5.4E-09 Ry

     iteration #  9     ecut=    30.00 Ry     beta= 0.40
     Davidson diagonalization with overlap
     ethr =  6.74E-11,  avg # of iterations =  2.1

     negative rho (up, down):  6.191E-07 0.000E+00

     total cpu time spent up to now is        8.7 secs

     total energy              =     -22.70942158 Ry
     Harris-Foulkes estimate   =     -22.70942158 Ry
     estimated scf accuracy    <          9.2E-10 Ry

     iteration # 10     ecut=    30.00 Ry     beta= 0.40
     Davidson diagonalization with overlap
     ethr =  1.16E-11,  avg # of iterations =  2.0

     negative rho (up, down):  6.254E-07 0.000E+00

     total cpu time spent up to now is        9.5 secs

     End of self-consistent calculation

          k = 0.0000 0.0000 0.0000 (  2867 PWs)   bands (ev):

   -13.1684  -4.8377  -3.4041  -3.2990   0.2078   0.8986   1.1328   1.3571

     occupation numbers 
     1.0000   1.0000   1.0000   1.0000   0.0000   0.0000   0.0000   0.0000

          k = 0.0000 0.0000 0.1064 (  2876 PWs)   bands (ev):

   -13.1684  -4.8377  -3.4041  -3.2990   0.2078   0.8986   1.1329   1.4301

     occupation numbers 
     1.0000   1.0000   1.0000   1.0000   0.0000   0.0000   0.0000   0.0000

          k = 0.3316 0.1928 0.0000 (  2871 PWs)   bands (ev):

   -11.9058  -7.6521  -4.4823  -3.6062  -0.5617   0.6058   2.7999   4.5219

     occupation numbers 
     1.0000   1.0000   1.0000   1.0000   0.0000   0.0000   0.0000   0.0000

          k = 0.3316 0.1928 0.1064 (  2865 PWs)   bands (ev):

   -11.9058  -7.6521  -4.4823  -3.6062  -0.5617   0.6057   2.8654   4.0309

     occupation numbers 
     1.0000   1.0000   1.0000   1.0000   0.0000   0.0000   0.0000   0.0000

          k = 0.6632 0.0000 0.0000 (  2826 PWs)   bands (ev):

    -9.9107  -9.7850  -6.5830  -1.6684  -1.5561   2.4740   3.6172   4.0625

     occupation numbers 
     1.0000   1.0000   1.0000   0.6994   0.3006   0.0000   0.0000   0.0000

          k = 0.6632 0.0000 0.1064 (  2826 PWs)   bands (ev):

    -9.9107  -9.7850  -6.5830  -1.6684  -1.5561   2.4733   3.6176   4.0640

     occupation numbers 
     1.0000   1.0000   1.0000   0.6994   0.3006   0.0000   0.0000   0.0000

          k =-0.0000-0.3856 0.0000 (  2885 PWs)   bands (ev):

   -11.8753  -7.6928  -4.4822  -3.5774  -0.5941   0.5723   2.8175   4.7201

     occupation numbers 
     1.0000   1.0000   1.0000   1.0000   0.0000   0.0000   0.0000   0.0000

          k =-0.0000-0.3856 0.1064 (  2865 PWs)   bands (ev):

   -11.8753  -7.6928  -4.4821  -3.5774  -0.5941   0.5722   2.8832   4.7199

     occupation numbers 
     1.0000   1.0000   1.0000   1.0000   0.0000   0.0000   0.0000   0.0000

     the Fermi energy is    -1.5872 ev

!    total energy              =     -22.70942158 Ry
     Harris-Foulkes estimate   =     -22.70942158 Ry
     estimated scf accuracy    <          3.9E-11 Ry

     The total energy is the sum of the following terms:

     one-electron contribution =     -39.48375337 Ry
     hartree contribution      =      21.01906458 Ry
     xc contribution           =     -12.22753647 Ry
     ewald contribution        =       7.98458886 Ry
     smearing contrib. (-TS)   =      -0.00178518 Ry

     convergence has been achieved in  10 iterations

     negative rho (up, down):  6.254E-07 0.000E+00

     Forces acting on atoms (cartesian axes, Ry/au):

     atom    1 type  1   force =     0.00000000    0.01019055    0.00000000
     atom    2 type  1   force =     0.00000000   -0.01019055    0.00000000
     The non-local contrib.  to forces
     atom    1 type  1   force =     0.00000000    0.02648447    0.00000000
     atom    2 type  1   force =     0.00000000   -0.02652958    0.00000000
     The ionic contribution  to forces
     atom    1 type  1   force =    -0.00000000    0.06637603   -0.00000000
     atom    2 type  1   force =     0.00000000   -0.06637603   -0.00000000
     The local contribution  to forces
     atom    1 type  1   force =     0.00000000   -0.07958443    0.00000000
     atom    2 type  1   force =     0.00000000    0.07959329    0.00000000
     The core correction contribution to forces
     atom    1 type  1   force =     0.00000000   -0.00309990   -0.00000000
     atom    2 type  1   force =    -0.00000000    0.00310539   -0.00000000
     The Hubbard contrib.    to forces
     atom    1 type  1   force =     0.00000000    0.00000000    0.00000000
     atom    2 type  1   force =     0.00000000    0.00000000    0.00000000
     The SCF correction term to forces
     atom    1 type  1   force =     0.00000000   -0.00000104    0.00000000
     atom    2 type  1   force =     0.00000000    0.00000095    0.00000000

     Total force =     0.014412     Total SCF correction =     0.000001


     Computing stress (Cartesian axis) and pressure


     negative rho (up, down):  6.254E-07 0.000E+00
          total   stress  (Ry/bohr**3)                   (kbar)     P=   14.57
   0.00014197   0.00000000   0.00000000         20.88      0.00      0.00
   0.00000000   0.00015554   0.00000000          0.00     22.88      0.00
   0.00000000   0.00000000  -0.00000044          0.00      0.00     -0.07

     kinetic stress (kbar)    541.49     -0.00      0.00
                                0.00    533.37      0.00
                                0.00      0.00    656.46

     local   stress (kbar)  -6544.38     -0.00      0.00
                               -0.00  -6597.54      0.00
                                0.00      0.00   6829.62

     nonloc. stress (kbar)    444.87      0.00      0.00
                                0.00    451.85      0.00
                                0.00      0.00    372.11

     hartree stress (kbar)   2914.15      0.00      0.00
                                0.00   2922.82      0.00
                                0.00      0.00  -2841.65

     exc-cor stress (kbar)    777.40      0.00      0.00
                                0.00    777.84     -0.00
                                0.00     -0.00    768.35

     corecor stress (kbar)  -1036.38     -0.00      0.00
                               -0.00  -1037.30      0.00
                                0.00      0.00  -1027.21

     ewald   stress (kbar)   2923.73      0.00     -0.00
                                0.00   2971.85     -0.00
                               -0.00     -0.00  -4757.74

     hubbard stress (kbar)      0.00      0.00      0.00
                                0.00      0.00      0.00
                                0.00      0.00      0.00

     london  stress (kbar)      0.00      0.00      0.00
                                0.00      0.00      0.00
                                0.00      0.00      0.00

     DFT-D3  stress (kbar)      0.00      0.00      0.00
                                0.00      0.00      0.00
                                0.00      0.00      0.00

     XDM     stress (kbar)      0.00      0.00      0.00
                                0.00      0.00      0.00
                                0.00      0.00      0.00

     dft-nl  stress (kbar)      0.00      0.00      0.00
                                0.00      0.00      0.00
                                0.00      0.00      0.00

     TS-vdW  stress (kbar)      0.00      0.00      0.00
                                0.00      0.00      0.00
                                0.00      0.00      0.00



     Writing output data file silicene.save/

     init_run     :      0.93s CPU      0.99s WALL (       1 calls)
     electrons    :      7.31s CPU      7.88s WALL (       1 calls)
     forces       :      0.61s CPU      0.65s WALL (       1 calls)
     stress       :      1.87s CPU      2.00s WALL (       1 calls)

     Called by init_run:
     wfcinit      :      0.10s CPU      0.10s WALL (       1 calls)
     wfcinit:atom :      0.00s CPU      0.00s WALL (       8 calls)
     wfcinit:wfcr :      0.08s CPU      0.08s WALL (       8 calls)
     potinit      :      0.17s CPU      0.18s WALL (       1 calls)
     hinit0       :      0.49s CPU      0.49s WALL (       1 calls)

     Called by electrons:
     c_bands      :      2.81s CPU      2.86s WALL (      10 calls)
     sum_band     :      2.08s CPU      2.40s WALL (      10 calls)
     v_of_rho     :      0.73s CPU      0.75s WALL (      11 calls)
     v_h          :      0.05s CPU      0.05s WALL (      11 calls)
     v_xc         :      0.80s CPU      0.83s WALL (      13 calls)
     newd         :      1.76s CPU      1.97s WALL (      11 calls)
     mix_rho      :      0.09s CPU      0.09s WALL (      10 calls)

     Called by c_bands:
     init_us_2    :      0.15s CPU      0.15s WALL (     184 calls)
     cegterg      :      2.34s CPU      2.37s WALL (      80 calls)

     Called by sum_band:
     sum_band:bec :      0.00s CPU      0.00s WALL (      80 calls)
     addusdens    :      1.59s CPU      1.92s WALL (      10 calls)

     Called by *egterg:
     h_psi        :      1.66s CPU      1.67s WALL (     310 calls)
     s_psi        :      0.26s CPU      0.28s WALL (     310 calls)
     g_psi        :      0.02s CPU      0.02s WALL (     222 calls)
     cdiaghg      :      0.04s CPU      0.04s WALL (     302 calls)
     cegterg:over :      0.17s CPU      0.17s WALL (     222 calls)
     cegterg:upda :      0.12s CPU      0.12s WALL (     222 calls)
     cegterg:last :      0.07s CPU      0.07s WALL (      84 calls)

     Called by h_psi:
     h_psi:pot    :      1.65s CPU      1.66s WALL (     310 calls)
     h_psi:calbec :      0.29s CPU      0.29s WALL (     310 calls)
     vloc_psi     :      1.09s CPU      1.10s WALL (     310 calls)
     add_vuspsi   :      0.26s CPU      0.27s WALL (     310 calls)

     General routines
     calbec       :      0.47s CPU      0.48s WALL (     430 calls)
     fft          :      0.50s CPU      0.50s WALL (     166 calls)
     ffts         :      0.01s CPU      0.01s WALL (      21 calls)
     fftw         :      1.03s CPU      1.04s WALL (    4030 calls)
     interpolate  :      0.05s CPU      0.05s WALL (      11 calls)

     Parallel routines

     PWSCF        :     11.39s CPU     12.20s WALL


   This run was terminated on:  21:36:39  22Sep2023            

=------------------------------------------------------------------------------=
   JOB DONE.
=------------------------------------------------------------------------------=
