### Running on host: LAPTOP-C0A2DPIS

     Program PWSCF v.6.4.1 starts on 22Sep2023 at 21:36:39 

     This program is part of the open-source Quantum ESPRESSO suite
     for quantum simulation of materials; please cite
         "P. Giannozzi et al., J. Phys.:Condens. Matter 21 395502 (2009);
         "P. Giannozzi et al., J. Phys.:Condens. Matter 29 465901 (2017);
          URL http://www.quantum-espresso.org", 
     in publications or presentations arising from this work. More details at
     http://www.quantum-espresso.org/quote

     Parallel version (MPI), running on     1 processors

     MPI processes distributed on     1 nodes
     Reading input from silicene_scf_kpoints-5.in

     Current dimensions of program PWSCF are:
     Max number of different atomic species (ntypx) = 10
     Max number of k-points (npk) =  40000
     Max angular momentum in pseudopotentials (lmaxx) =  3
     Message from routine read_upf::
     Pseudo file Si.pbe-n-rrkjus_psl.1.0.0.UPF has been fixed on the fly.
To avoid this message in the future, permanently fix 
 your pseudo files following these instructions: 
https://gitlab.com/QEF/q-e/blob/master/upftools/how_to_fix_upf.md

     Subspace diagonalization in iterative solution of the eigenvalue problem:
     a serial algorithm will be used

     Message from routine setup:
     DEPRECATED: symmetry with ibrav=0, use correct ibrav instead

     G-vector sticks info
     --------------------
     sticks:   dense  smooth     PW     G-vecs:    dense   smooth      PW
     Sum         859     433    139                64713    22975    4095



     bravais-lattice index     =            0
     lattice parameter (alat)  =       7.2375  a.u.
     unit-cell volume          =    1032.2806 (a.u.)^3
     number of atoms/cell      =            2
     number of atomic types    =            1
     number of electrons       =         8.00
     number of Kohn-Sham states=            8
     kinetic-energy cutoff     =      30.0000  Ry
     charge density cutoff     =     240.0000  Ry
     convergence threshold     =      4.0E-10
     mixing beta               =       0.4000
     number of iterations used =            8  plain     mixing
     Exchange-correlation      = PBE ( 1  4  3  4 0 0)

     celldm(1)=   7.237514  celldm(2)=   0.000000  celldm(3)=   0.000000
     celldm(4)=   0.000000  celldm(5)=   0.000000  celldm(6)=   0.000000

     crystal axes: (cart. coord. in units of alat)
               a(1) = (   0.502620  -0.864507   0.000000 )  
               a(2) = (   0.502620   0.864507   0.000000 )  
               a(3) = (   0.000000   0.000000   3.133218 )  

     reciprocal axes: (cart. coord. in units 2 pi/alat)
               b(1) = (  0.994786 -0.578364  0.000000 )  
               b(2) = (  0.994786  0.578364 -0.000000 )  
               b(3) = ( -0.000000  0.000000  0.319161 )  


     PseudoPot. # 1 for Si read from file:
     /home/meyn/q-e-qe-7.1/pseudo/Si.pbe-n-rrkjus_psl.1.0.0.UPF
     MD5 check sum: 56671f82560c68743c116fe4c72cdc4c
     Pseudo is Ultrasoft + core correction, Zval =  4.0
     Generated using "atomic" code by A. Dal Corso v.5.1.2
     Using radial grid of 1141 points,  6 beta functions with: 
                l(1) =   0
                l(2) =   0
                l(3) =   1
                l(4) =   1
                l(5) =   2
                l(6) =   2
     Q(r) pseudized with 0 coefficients 


     atomic species   valence    mass     pseudopotential
        Si             4.00    28.08550     Si( 1.00)

      4 Sym. Ops. (no inversion) found


                                    s                        frac. trans.

      isym =  1     identity                                     

 cryst.   s( 1) = (     1          0          0      )
                  (     0          1          0      )
                  (     0          0          1      )

 cart.    s( 1) = (  1.0000000  0.0000000  0.0000000 )
                  (  0.0000000  1.0000000  0.0000000 )
                  (  0.0000000  0.0000000  1.0000000 )


      isym =  2     180 deg rotation - cart. axis [0,1,0]        

 cryst.   s( 2) = (     0         -1          0      )
                  (    -1          0          0      )
                  (     0          0         -1      )

 cart.    s( 2) = ( -1.0000000  0.0000000  0.0000000 )
                  (  0.0000000  1.0000000  0.0000000 )
                  (  0.0000000  0.0000000 -1.0000000 )


      isym =  3     inv. 180 deg rotation - cart. axis [0,0,1]   

 cryst.   s( 3) = (     1          0          0      )
                  (     0          1          0      )
                  (     0          0         -1      )

 cart.    s( 3) = (  1.0000000  0.0000000  0.0000000 )
                  (  0.0000000  1.0000000  0.0000000 )
                  (  0.0000000  0.0000000 -1.0000000 )


      isym =  4     inv. 180 deg rotation - cart. axis [1,0,0]   

 cryst.   s( 4) = (     0         -1          0      )
                  (    -1          0          0      )
                  (     0          0          1      )

 cart.    s( 4) = ( -1.0000000  0.0000000  0.0000000 )
                  (  0.0000000  1.0000000  0.0000000 )
                  (  0.0000000  0.0000000  1.0000000 )


   Cartesian axes

     site n.     atom                  positions (alat units)
         1           Si  tau(   1) = (   0.0000000   0.0000000   0.0000000  )
         2           Si  tau(   2) = (   0.5026205   0.2939324   0.0000000  )

   Crystallographic axes

     site n.     atom                  positions (cryst. coord.)
         1           Si  tau(   1) = (  0.0000000  0.0000000  0.0000000  )
         2           Si  tau(   2) = (  0.3300000  0.6700000  0.0000000  )

     number of k points=    27  Marzari-Vanderbilt smearing, width (Ry)=  0.0147
                       cart. coord. in units 2pi/alat
        k(    1) = (   0.0000000   0.0000000   0.0000000), wk =   0.0160000
        k(    2) = (   0.0000000   0.0000000   0.0638321), wk =   0.0320000
        k(    3) = (   0.0000000   0.0000000   0.1276643), wk =   0.0320000
        k(    4) = (   0.1989573   0.1156728   0.0000000), wk =   0.0640000
        k(    5) = (   0.1989573   0.1156728   0.0638321), wk =   0.1280000
        k(    6) = (   0.1989573   0.1156728   0.1276643), wk =   0.1280000
        k(    7) = (   0.3979146   0.2313457   0.0000000), wk =   0.0640000
        k(    8) = (   0.3979146   0.2313457   0.0638321), wk =   0.1280000
        k(    9) = (   0.3979146   0.2313457   0.1276643), wk =   0.1280000
        k(   10) = (   0.3979146   0.0000000   0.0000000), wk =   0.0320000
        k(   11) = (   0.3979146   0.0000000   0.0638321), wk =   0.0640000
        k(   12) = (   0.3979146   0.0000000   0.1276643), wk =   0.0640000
        k(   13) = (   0.5968718   0.1156728   0.0000000), wk =   0.0640000
        k(   14) = (   0.5968718   0.1156728   0.0638321), wk =   0.1280000
        k(   15) = (   0.5968718   0.1156728   0.1276643), wk =   0.1280000
        k(   16) = (  -0.1989573  -0.3470185   0.0000000), wk =   0.0640000
        k(   17) = (  -0.1989573  -0.3470185   0.0638321), wk =   0.1280000
        k(   18) = (  -0.1989573  -0.3470185   0.1276643), wk =   0.1280000
        k(   19) = (   0.0000000  -0.2313457   0.0000000), wk =   0.0320000
        k(   20) = (   0.0000000  -0.2313457   0.0638321), wk =   0.0640000
        k(   21) = (   0.0000000  -0.2313457   0.1276643), wk =   0.0640000
        k(   22) = (   0.7958291   0.0000000   0.0000000), wk =   0.0320000
        k(   23) = (   0.7958291   0.0000000   0.0638321), wk =   0.0640000
        k(   24) = (   0.7958291   0.0000000   0.1276643), wk =   0.0640000
        k(   25) = (   0.0000000  -0.4626914   0.0000000), wk =   0.0320000
        k(   26) = (   0.0000000  -0.4626914   0.0638321), wk =   0.0640000
        k(   27) = (   0.0000000  -0.4626914   0.1276643), wk =   0.0640000

                       cryst. coord.
        k(    1) = (   0.0000000   0.0000000   0.0000000), wk =   0.0160000
        k(    2) = (   0.0000000   0.0000000   0.2000000), wk =   0.0320000
        k(    3) = (   0.0000000   0.0000000   0.4000000), wk =   0.0320000
        k(    4) = (   0.0000000   0.2000000   0.0000000), wk =   0.0640000
        k(    5) = (   0.0000000   0.2000000   0.2000000), wk =   0.1280000
        k(    6) = (   0.0000000   0.2000000   0.4000000), wk =   0.1280000
        k(    7) = (   0.0000000   0.4000000   0.0000000), wk =   0.0640000
        k(    8) = (   0.0000000   0.4000000   0.2000000), wk =   0.1280000
        k(    9) = (   0.0000000   0.4000000   0.4000000), wk =   0.1280000
        k(   10) = (   0.2000000   0.2000000   0.0000000), wk =   0.0320000
        k(   11) = (   0.2000000   0.2000000   0.2000000), wk =   0.0640000
        k(   12) = (   0.2000000   0.2000000   0.4000000), wk =   0.0640000
        k(   13) = (   0.2000000   0.4000000   0.0000000), wk =   0.0640000
        k(   14) = (   0.2000000   0.4000000   0.2000000), wk =   0.1280000
        k(   15) = (   0.2000000   0.4000000   0.4000000), wk =   0.1280000
        k(   16) = (   0.2000000  -0.4000000   0.0000000), wk =   0.0640000
        k(   17) = (   0.2000000  -0.4000000   0.2000000), wk =   0.1280000
        k(   18) = (   0.2000000  -0.4000000   0.4000000), wk =   0.1280000
        k(   19) = (   0.2000000  -0.2000000   0.0000000), wk =   0.0320000
        k(   20) = (   0.2000000  -0.2000000   0.2000000), wk =   0.0640000
        k(   21) = (   0.2000000  -0.2000000   0.4000000), wk =   0.0640000
        k(   22) = (   0.4000000   0.4000000   0.0000000), wk =   0.0320000
        k(   23) = (   0.4000000   0.4000000   0.2000000), wk =   0.0640000
        k(   24) = (   0.4000000   0.4000000   0.4000000), wk =   0.0640000
        k(   25) = (   0.4000000  -0.4000000   0.0000000), wk =   0.0320000
        k(   26) = (   0.4000000  -0.4000000   0.2000000), wk =   0.0640000
        k(   27) = (   0.4000000  -0.4000000   0.4000000), wk =   0.0640000

     Dense  grid:    64713 G-vectors     FFT dimensions: (  36,  36, 120)

     Smooth grid:    22975 G-vectors     FFT dimensions: (  25,  25,  80)

     Dynamical RAM for                 wfc:       0.35 MB

     Dynamical RAM for     wfc (w. buffer):       9.79 MB

     Dynamical RAM for           str. fact:       0.99 MB

     Dynamical RAM for           local pot:       0.00 MB

     Dynamical RAM for          nlocal pot:       1.57 MB

     Dynamical RAM for                qrad:       1.43 MB

     Dynamical RAM for          rho,v,vnew:       6.52 MB

     Dynamical RAM for               rhoin:       2.17 MB

     Dynamical RAM for            rho*nmix:      15.80 MB

     Dynamical RAM for           G-vectors:       3.88 MB

     Dynamical RAM for          h,s,v(r/c):       0.05 MB

     Dynamical RAM for          <psi|beta>:       0.00 MB

     Dynamical RAM for                 psi:       1.40 MB

     Dynamical RAM for                hpsi:       1.40 MB

     Dynamical RAM for                spsi:       1.40 MB

     Dynamical RAM for      wfcinit/wfcrot:       0.70 MB

     Dynamical RAM for           addusdens:     185.64 MB

     Dynamical RAM for          addusforce:     188.12 MB

     Dynamical RAM for         addusstress:     198.48 MB

     Estimated static dynamical RAM per process >      50.06 MB

     Estimated max dynamical RAM per process >     248.54 MB

     Initial potential from superposition of free atoms

     starting charge    7.99888, renormalised to    8.00000

     negative rho (up, down):  3.014E-06 0.000E+00
     Starting wfcs are    8 randomized atomic wfcs

     total cpu time spent up to now is        1.9 secs

     Self-consistent Calculation

     iteration #  1     ecut=    30.00 Ry     beta= 0.40
     Davidson diagonalization with overlap
     ethr =  1.00E-02,  avg # of iterations =  4.4

     Threshold (ethr) on eigenvalues was too large:
     Diagonalizing with lowered threshold

     Davidson diagonalization with overlap
     ethr =  9.37E-04,  avg # of iterations =  1.1

     negative rho (up, down):  1.241E-06 0.000E+00

     total cpu time spent up to now is        5.2 secs

     total energy              =     -22.73850328 Ry
     Harris-Foulkes estimate   =     -22.75878208 Ry
     estimated scf accuracy    <       0.07401489 Ry

     iteration #  2     ecut=    30.00 Ry     beta= 0.40
     Davidson diagonalization with overlap
     ethr =  9.25E-04,  avg # of iterations =  1.0

     negative rho (up, down):  2.914E-06 0.000E+00

     total cpu time spent up to now is        6.6 secs

     total energy              =     -22.73494151 Ry
     Harris-Foulkes estimate   =     -22.74083530 Ry
     estimated scf accuracy    <       0.01775679 Ry

     iteration #  3     ecut=    30.00 Ry     beta= 0.40
     Davidson diagonalization with overlap
     ethr =  2.22E-04,  avg # of iterations =  4.3

     negative rho (up, down):  1.494E-06 0.000E+00

     total cpu time spent up to now is        8.3 secs

     total energy              =     -22.73687421 Ry
     Harris-Foulkes estimate   =     -22.73708094 Ry
     estimated scf accuracy    <       0.00065200 Ry

     iteration #  4     ecut=    30.00 Ry     beta= 0.40
     Davidson diagonalization with overlap
     c_bands:  1 eigenvalues not converged
     ethr =  8.15E-06,  avg # of iterations =  5.5

     negative rho (up, down):  1.065E-06 0.000E+00

     total cpu time spent up to now is       10.2 secs

     total energy              =     -22.73694384 Ry
     Harris-Foulkes estimate   =     -22.73707843 Ry
     estimated scf accuracy    <       0.00021578 Ry

     iteration #  5     ecut=    30.00 Ry     beta= 0.40
     Davidson diagonalization with overlap
     ethr =  2.70E-06,  avg # of iterations =  2.7

     negative rho (up, down):  8.130E-07 0.000E+00

     total cpu time spent up to now is       11.7 secs

     total energy              =     -22.73698683 Ry
     Harris-Foulkes estimate   =     -22.73698819 Ry
     estimated scf accuracy    <       0.00000495 Ry

     iteration #  6     ecut=    30.00 Ry     beta= 0.40
     Davidson diagonalization with overlap
     ethr =  6.19E-08,  avg # of iterations =  1.8

     negative rho (up, down):  7.252E-07 0.000E+00

     total cpu time spent up to now is       13.3 secs

     total energy              =     -22.73698674 Ry
     Harris-Foulkes estimate   =     -22.73698740 Ry
     estimated scf accuracy    <       0.00000133 Ry

     iteration #  7     ecut=    30.00 Ry     beta= 0.40
     Davidson diagonalization with overlap
     ethr =  1.66E-08,  avg # of iterations =  2.0

     negative rho (up, down):  6.941E-07 0.000E+00

     total cpu time spent up to now is       14.6 secs

     total energy              =     -22.73698694 Ry
     Harris-Foulkes estimate   =     -22.73698694 Ry
     estimated scf accuracy    <       0.00000002 Ry

     iteration #  8     ecut=    30.00 Ry     beta= 0.40
     Davidson diagonalization with overlap
     ethr =  2.73E-10,  avg # of iterations =  2.4

     negative rho (up, down):  6.955E-07 0.000E+00

     total cpu time spent up to now is       16.2 secs

     End of self-consistent calculation

          k = 0.0000 0.0000 0.0000 (  2867 PWs)   bands (ev):

   -13.2104  -4.8561  -3.4749  -3.3315   0.1714   0.8566   1.1194   1.3585

     occupation numbers 
     1.0000   1.0000   1.0000   1.0000   0.0000   0.0000   0.0000   0.0000

          k = 0.0000 0.0000 0.0638 (  2885 PWs)   bands (ev):

   -13.2104  -4.8561  -3.4749  -3.3315   0.1714   0.8566   1.1194   1.3896

     occupation numbers 
     1.0000   1.0000   1.0000   1.0000   0.0000   0.0000   0.0000   0.0000

          k = 0.0000 0.0000 0.1277 (  2872 PWs)   bands (ev):

   -13.2104  -4.8561  -3.4749  -3.3315   0.1715   0.8566   1.1194   1.4489

     occupation numbers 
     1.0000   1.0000   1.0000   1.0000   0.0000   0.0000   0.0000   0.0000

          k = 0.1990 0.1157 0.0000 (  2872 PWs)   bands (ev):

   -12.7430  -5.6969  -4.4001  -4.0355   0.0211   1.8824   2.5395   2.5918

     occupation numbers 
     1.0000   1.0000   1.0000   1.0000   0.0000   0.0000   0.0000   0.0000

          k = 0.1990 0.1157 0.0638 (  2874 PWs)   bands (ev):

   -12.7430  -5.6969  -4.4001  -4.0355   0.0211   1.9126   2.5387   2.5919

     occupation numbers 
     1.0000   1.0000   1.0000   1.0000   0.0000   0.0000   0.0000   0.0000

          k = 0.1990 0.1157 0.1277 (  2872 PWs)   bands (ev):

   -12.7430  -5.6969  -4.4001  -4.0355   0.0211   1.9699   2.5367   2.5919

     occupation numbers 
     1.0000   1.0000   1.0000   1.0000   0.0000   0.0000   0.0000   0.0000

          k = 0.3979 0.2313 0.0000 (  2873 PWs)   bands (ev):

   -11.4640  -8.5335  -4.6914  -3.1535  -0.8015  -0.2403   3.4106   5.0869

     occupation numbers 
     1.0000   1.0000   1.0000   1.0000   0.0000   0.0000   0.0000   0.0000

          k = 0.3979 0.2313 0.0638 (  2869 PWs)   bands (ev):

   -11.4640  -8.5335  -4.6914  -3.1535  -0.8015  -0.2403   3.4363   4.8329

     occupation numbers 
     1.0000   1.0000   1.0000   1.0000   0.0000   0.0000   0.0000   0.0000

          k = 0.3979 0.2313 0.1277 (  2869 PWs)   bands (ev):

   -11.4640  -8.5335  -4.6914  -3.1535  -0.8015  -0.2404   3.4837   4.5968

     occupation numbers 
     1.0000   1.0000   1.0000   1.0000   0.0000   0.0000   0.0000   0.0000

          k = 0.3979 0.0000 0.0000 (  2866 PWs)   bands (ev):

   -11.8539  -7.5475  -5.4718  -3.5319   0.6511   1.5543   2.1918   2.9098

     occupation numbers 
     1.0000   1.0000   1.0000   1.0000   0.0000   0.0000   0.0000   0.0000

          k = 0.3979 0.0000 0.0638 (  2859 PWs)   bands (ev):

   -11.8539  -7.5475  -5.4718  -3.5320   0.6511   1.5543   2.1918   2.9375

     occupation numbers 
     1.0000   1.0000   1.0000   1.0000   0.0000   0.0000   0.0000   0.0000

          k = 0.3979 0.0000 0.1277 (  2860 PWs)   bands (ev):

   -11.8539  -7.5475  -5.4718  -3.5320   0.6510   1.5543   2.1918   2.9897

     occupation numbers 
     1.0000   1.0000   1.0000   1.0000   0.0000   0.0000   0.0000   0.0000

          k = 0.5969 0.1157 0.0000 (  2866 PWs)   bands (ev):

   -10.6032  -9.3039  -6.1268  -2.3203  -1.0401   1.4318   3.0171   4.4543

     occupation numbers 
     1.0000   1.0000   1.0000   1.0672   0.0000   0.0000   0.0000   0.0000

          k = 0.5969 0.1157 0.0638 (  2851 PWs)   bands (ev):

   -10.6032  -9.3039  -6.1268  -2.3203  -1.0401   1.4318   3.0166   4.4644

     occupation numbers 
     1.0000   1.0000   1.0000   1.0672   0.0000   0.0000   0.0000   0.0000

          k = 0.5969 0.1157 0.1277 (  2855 PWs)   bands (ev):

   -10.6032  -9.3039  -6.1268  -2.3203  -1.0401   1.4318   3.0157   4.4814

     occupation numbers 
     1.0000   1.0000   1.0000   1.0672   0.0000   0.0000   0.0000   0.0000

          k =-0.1990-0.3470 0.0000 (  2870 PWs)   bands (ev):

   -11.8218  -7.6493  -5.3868  -3.5035   0.5801   1.6422   1.9855   2.9260

     occupation numbers 
     1.0000   1.0000   1.0000   1.0000   0.0000   0.0000   0.0000   0.0000

          k =-0.1990-0.3470 0.0638 (  2858 PWs)   bands (ev):

   -11.8218  -7.6493  -5.3868  -3.5035   0.5801   1.6422   1.9855   2.9536

     occupation numbers 
     1.0000   1.0000   1.0000   1.0000   0.0000   0.0000   0.0000   0.0000

          k =-0.1990-0.3470 0.1277 (  2865 PWs)   bands (ev):

   -11.8218  -7.6493  -5.3868  -3.5036   0.5800   1.6422   1.9855   3.0058

     occupation numbers 
     1.0000   1.0000   1.0000   1.0000   0.0000   0.0000   0.0000   0.0000

          k = 0.0000-0.2313 0.0000 (  2865 PWs)   bands (ev):

   -12.7326  -5.7509  -4.3908  -3.9880   0.0382   1.8885   2.4657   2.5164

     occupation numbers 
     1.0000   1.0000   1.0000   1.0000   0.0000   0.0000   0.0000   0.0000

          k = 0.0000-0.2313 0.0638 (  2866 PWs)   bands (ev):

   -12.7326  -5.7509  -4.3908  -3.9880   0.0382   1.9188   2.4657   2.5162

     occupation numbers 
     1.0000   1.0000   1.0000   1.0000   0.0000   0.0000   0.0000   0.0000

          k = 0.0000-0.2313 0.1277 (  2873 PWs)   bands (ev):

   -12.7326  -5.7509  -4.3909  -3.9880   0.0382   1.9762   2.4657   2.5155

     occupation numbers 
     1.0000   1.0000   1.0000   1.0000   0.0000   0.0000   0.0000   0.0000

          k = 0.7958 0.0000 0.0000 (  2856 PWs)   bands (ev):

   -10.4728  -9.4668  -6.0993  -2.2144  -1.1650   1.3955   3.0303   4.5348

     occupation numbers 
     1.0000   1.0000   1.0000   0.8656   0.0000   0.0000   0.0000   0.0000

          k = 0.7958 0.0000 0.0638 (  2848 PWs)   bands (ev):

   -10.4728  -9.4668  -6.0993  -2.2144  -1.1650   1.3955   3.0298   4.5458

     occupation numbers 
     1.0000   1.0000   1.0000   0.8656   0.0000   0.0000   0.0000   0.0000

          k = 0.7958 0.0000 0.1277 (  2867 PWs)   bands (ev):

   -10.4728  -9.4668  -6.0993  -2.2144  -1.1651   1.3955   3.0289   4.5643

     occupation numbers 
     1.0000   1.0000   1.0000   0.8657   0.0000   0.0000   0.0000   0.0000

          k = 0.0000-0.4627 0.0000 (  2883 PWs)   bands (ev):

   -11.3979  -8.6272  -4.6823  -3.0968  -0.8168  -0.3108   3.4378   5.1001

     occupation numbers 
     1.0000   1.0000   1.0000   1.0000   0.0000   0.0000   0.0000   0.0000

          k = 0.0000-0.4627 0.0638 (  2870 PWs)   bands (ev):

   -11.3979  -8.6272  -4.6823  -3.0968  -0.8168  -0.3109   3.4637   4.8512

     occupation numbers 
     1.0000   1.0000   1.0000   1.0000   0.0000   0.0000   0.0000   0.0000

          k = 0.0000-0.4627 0.1277 (  2879 PWs)   bands (ev):

   -11.3979  -8.6272  -4.6823  -3.0968  -0.8169  -0.3109   3.5117   4.6150

     occupation numbers 
     1.0000   1.0000   1.0000   1.0000   0.0000   0.0000   0.0000   0.0000

     the Fermi energy is    -2.0843 ev

!    total energy              =     -22.73698694 Ry
     Harris-Foulkes estimate   =     -22.73698695 Ry
     estimated scf accuracy    <          3.3E-10 Ry

     The total energy is the sum of the following terms:

     one-electron contribution =     -39.49892389 Ry
     hartree contribution      =      20.99401803 Ry
     xc contribution           =     -12.21732642 Ry
     ewald contribution        =       7.98458886 Ry
     smearing contrib. (-TS)   =       0.00065648 Ry

     convergence has been achieved in   8 iterations

     negative rho (up, down):  6.955E-07 0.000E+00

     Forces acting on atoms (cartesian axes, Ry/au):

     atom    1 type  1   force =     0.00000000    0.02044032    0.00000000
     atom    2 type  1   force =     0.00000000   -0.02044032    0.00000000
     The non-local contrib.  to forces
     atom    1 type  1   force =     0.00000000    0.02395910    0.00000000
     atom    2 type  1   force =     0.00000000   -0.02400212    0.00000000
     The ionic contribution  to forces
     atom    1 type  1   force =    -0.00000000    0.06637603   -0.00000000
     atom    2 type  1   force =     0.00000000   -0.06637603   -0.00000000
     The local contribution  to forces
     atom    1 type  1   force =    -0.00000000   -0.06709974    0.00000000
     atom    2 type  1   force =     0.00000000    0.06710644    0.00000000
     The core correction contribution to forces
     atom    1 type  1   force =     0.00000000   -0.00281338    0.00000000
     atom    2 type  1   force =    -0.00000000    0.00282487    0.00000000
     The Hubbard contrib.    to forces
     atom    1 type  1   force =     0.00000000    0.00000000    0.00000000
     atom    2 type  1   force =     0.00000000    0.00000000    0.00000000
     The SCF correction term to forces
     atom    1 type  1   force =    -0.00000000    0.00000593   -0.00000000
     atom    2 type  1   force =     0.00000000   -0.00000585   -0.00000000

     Total force =     0.028907     Total SCF correction =     0.000008


     Computing stress (Cartesian axis) and pressure


     negative rho (up, down):  6.955E-07 0.000E+00
          total   stress  (Ry/bohr**3)                   (kbar)     P=   12.66
   0.00009608   0.00000000   0.00000000         14.13      0.00      0.00
   0.00000000   0.00016262  -0.00000000          0.00     23.92     -0.00
   0.00000000   0.00000000  -0.00000047          0.00      0.00     -0.07

     kinetic stress (kbar)    529.79     -0.00      0.00
                                0.00    526.21      0.00
                                0.00      0.00    656.25

     local   stress (kbar)  -6542.22     -0.00     -0.00
                               -0.00  -6590.04      0.00
                               -0.00      0.00   6824.89

     nonloc. stress (kbar)    447.33      0.00      0.00
                                0.00    454.29      0.00
                                0.00      0.00    378.07

     hartree stress (kbar)   2913.86     -0.00     -0.00
                               -0.00   2920.51     -0.00
                               -0.00     -0.00  -2842.62

     exc-cor stress (kbar)    777.93      0.00      0.00
                                0.00    778.29      0.00
                                0.00      0.00    768.84

     corecor stress (kbar)  -1036.29     -0.00     -0.00
                               -0.00  -1037.19     -0.00
                               -0.00      0.00  -1027.75

     ewald   stress (kbar)   2923.73      0.00     -0.00
                                0.00   2971.85     -0.00
                               -0.00     -0.00  -4757.74

     hubbard stress (kbar)      0.00      0.00      0.00
                                0.00      0.00      0.00
                                0.00      0.00      0.00

     london  stress (kbar)      0.00      0.00      0.00
                                0.00      0.00      0.00
                                0.00      0.00      0.00

     DFT-D3  stress (kbar)      0.00      0.00      0.00
                                0.00      0.00      0.00
                                0.00      0.00      0.00

     XDM     stress (kbar)      0.00      0.00      0.00
                                0.00      0.00      0.00
                                0.00      0.00      0.00

     dft-nl  stress (kbar)      0.00      0.00      0.00
                                0.00      0.00      0.00
                                0.00      0.00      0.00

     TS-vdW  stress (kbar)      0.00      0.00      0.00
                                0.00      0.00      0.00
                                0.00      0.00      0.00



     Writing output data file silicene.save/

     init_run     :      1.32s CPU      1.36s WALL (       1 calls)
     electrons    :     13.86s CPU     14.35s WALL (       1 calls)
     forces       :      0.69s CPU      0.73s WALL (       1 calls)
     stress       :      2.24s CPU      2.34s WALL (       1 calls)

     Called by init_run:
     wfcinit      :      0.33s CPU      0.33s WALL (       1 calls)
     wfcinit:atom :      0.01s CPU      0.01s WALL (      27 calls)
     wfcinit:wfcr :      0.27s CPU      0.27s WALL (      27 calls)
     potinit      :      0.17s CPU      0.17s WALL (       1 calls)
     hinit0       :      0.61s CPU      0.62s WALL (       1 calls)

     Called by electrons:
     c_bands      :      9.01s CPU      9.12s WALL (       9 calls)
     sum_band     :      2.98s CPU      3.28s WALL (       9 calls)
     v_of_rho     :      0.60s CPU      0.60s WALL (       9 calls)
     v_h          :      0.04s CPU      0.04s WALL (       9 calls)
     v_xc         :      0.67s CPU      0.68s WALL (      11 calls)
     newd         :      1.39s CPU      1.50s WALL (       9 calls)
     mix_rho      :      0.07s CPU      0.07s WALL (       9 calls)

     Called by c_bands:
     init_us_2    :      0.44s CPU      0.45s WALL (     567 calls)
     cegterg      :      7.57s CPU      7.68s WALL (     243 calls)

     Called by sum_band:
     sum_band:bec :      0.00s CPU      0.00s WALL (     243 calls)
     addusdens    :      1.69s CPU      1.96s WALL (       9 calls)

     Called by *egterg:
     h_psi        :      5.44s CPU      5.50s WALL (     952 calls)
     s_psi        :      0.85s CPU      0.85s WALL (     952 calls)
     g_psi        :      0.06s CPU      0.06s WALL (     682 calls)
     cdiaghg      :      0.11s CPU      0.11s WALL (     898 calls)
     cegterg:over :      0.54s CPU      0.54s WALL (     682 calls)
     cegterg:upda :      0.38s CPU      0.40s WALL (     682 calls)
     cegterg:last :      0.19s CPU      0.21s WALL (     246 calls)

     Called by h_psi:
     h_psi:pot    :      5.41s CPU      5.47s WALL (     952 calls)
     h_psi:calbec :      0.96s CPU      0.96s WALL (     952 calls)
     vloc_psi     :      3.58s CPU      3.64s WALL (     952 calls)
     add_vuspsi   :      0.86s CPU      0.86s WALL (     952 calls)

     General routines
     calbec       :      1.43s CPU      1.44s WALL (    1330 calls)
     fft          :      0.42s CPU      0.42s WALL (     141 calls)
     ffts         :      0.01s CPU      0.01s WALL (      18 calls)
     fftw         :      3.39s CPU      3.46s WALL (   12416 calls)
     interpolate  :      0.03s CPU      0.03s WALL (       9 calls)

     Parallel routines

     PWSCF        :     18.64s CPU     19.33s WALL


   This run was terminated on:  21:36:59  22Sep2023            

=------------------------------------------------------------------------------=
   JOB DONE.
=------------------------------------------------------------------------------=
