### Running on host: LAPTOP-C0A2DPIS

     Program PWSCF v.6.4.1 starts on 22Sep2023 at 21:36:16 

     This program is part of the open-source Quantum ESPRESSO suite
     for quantum simulation of materials; please cite
         "P. Giannozzi et al., J. Phys.:Condens. Matter 21 395502 (2009);
         "P. Giannozzi et al., J. Phys.:Condens. Matter 29 465901 (2017);
          URL http://www.quantum-espresso.org", 
     in publications or presentations arising from this work. More details at
     http://www.quantum-espresso.org/quote

     Parallel version (MPI), running on     1 processors

     MPI processes distributed on     1 nodes
     Reading input from silicene_scf_kpoints-1.in

     Current dimensions of program PWSCF are:
     Max number of different atomic species (ntypx) = 10
     Max number of k-points (npk) =  40000
     Max angular momentum in pseudopotentials (lmaxx) =  3
     Message from routine read_upf::
     Pseudo file Si.pbe-n-rrkjus_psl.1.0.0.UPF has been fixed on the fly.
To avoid this message in the future, permanently fix 
 your pseudo files following these instructions: 
https://gitlab.com/QEF/q-e/blob/master/upftools/how_to_fix_upf.md

     Subspace diagonalization in iterative solution of the eigenvalue problem:
     a serial algorithm will be used

     Message from routine setup:
     DEPRECATED: symmetry with ibrav=0, use correct ibrav instead

     G-vector sticks info
     --------------------
     sticks:   dense  smooth     PW     G-vecs:    dense   smooth      PW
     Sum         859     433    109                64713    22975    2867



     bravais-lattice index     =            0
     lattice parameter (alat)  =       7.2375  a.u.
     unit-cell volume          =    1032.2806 (a.u.)^3
     number of atoms/cell      =            2
     number of atomic types    =            1
     number of electrons       =         8.00
     number of Kohn-Sham states=            8
     kinetic-energy cutoff     =      30.0000  Ry
     charge density cutoff     =     240.0000  Ry
     convergence threshold     =      4.0E-10
     mixing beta               =       0.4000
     number of iterations used =            8  plain     mixing
     Exchange-correlation      = PBE ( 1  4  3  4 0 0)

     celldm(1)=   7.237514  celldm(2)=   0.000000  celldm(3)=   0.000000
     celldm(4)=   0.000000  celldm(5)=   0.000000  celldm(6)=   0.000000

     crystal axes: (cart. coord. in units of alat)
               a(1) = (   0.502620  -0.864507   0.000000 )  
               a(2) = (   0.502620   0.864507   0.000000 )  
               a(3) = (   0.000000   0.000000   3.133218 )  

     reciprocal axes: (cart. coord. in units 2 pi/alat)
               b(1) = (  0.994786 -0.578364  0.000000 )  
               b(2) = (  0.994786  0.578364 -0.000000 )  
               b(3) = ( -0.000000  0.000000  0.319161 )  


     PseudoPot. # 1 for Si read from file:
     /home/meyn/q-e-qe-7.1/pseudo/Si.pbe-n-rrkjus_psl.1.0.0.UPF
     MD5 check sum: 56671f82560c68743c116fe4c72cdc4c
     Pseudo is Ultrasoft + core correction, Zval =  4.0
     Generated using "atomic" code by A. Dal Corso v.5.1.2
     Using radial grid of 1141 points,  6 beta functions with: 
                l(1) =   0
                l(2) =   0
                l(3) =   1
                l(4) =   1
                l(5) =   2
                l(6) =   2
     Q(r) pseudized with 0 coefficients 


     atomic species   valence    mass     pseudopotential
        Si             4.00    28.08550     Si( 1.00)

      4 Sym. Ops. (no inversion) found


                                    s                        frac. trans.

      isym =  1     identity                                     

 cryst.   s( 1) = (     1          0          0      )
                  (     0          1          0      )
                  (     0          0          1      )

 cart.    s( 1) = (  1.0000000  0.0000000  0.0000000 )
                  (  0.0000000  1.0000000  0.0000000 )
                  (  0.0000000  0.0000000  1.0000000 )


      isym =  2     180 deg rotation - cart. axis [0,1,0]        

 cryst.   s( 2) = (     0         -1          0      )
                  (    -1          0          0      )
                  (     0          0         -1      )

 cart.    s( 2) = ( -1.0000000  0.0000000  0.0000000 )
                  (  0.0000000  1.0000000  0.0000000 )
                  (  0.0000000  0.0000000 -1.0000000 )


      isym =  3     inv. 180 deg rotation - cart. axis [0,0,1]   

 cryst.   s( 3) = (     1          0          0      )
                  (     0          1          0      )
                  (     0          0         -1      )

 cart.    s( 3) = (  1.0000000  0.0000000  0.0000000 )
                  (  0.0000000  1.0000000  0.0000000 )
                  (  0.0000000  0.0000000 -1.0000000 )


      isym =  4     inv. 180 deg rotation - cart. axis [1,0,0]   

 cryst.   s( 4) = (     0         -1          0      )
                  (    -1          0          0      )
                  (     0          0          1      )

 cart.    s( 4) = ( -1.0000000  0.0000000  0.0000000 )
                  (  0.0000000  1.0000000  0.0000000 )
                  (  0.0000000  0.0000000  1.0000000 )


   Cartesian axes

     site n.     atom                  positions (alat units)
         1           Si  tau(   1) = (   0.0000000   0.0000000   0.0000000  )
         2           Si  tau(   2) = (   0.5026205   0.2939324   0.0000000  )

   Crystallographic axes

     site n.     atom                  positions (cryst. coord.)
         1           Si  tau(   1) = (  0.0000000  0.0000000  0.0000000  )
         2           Si  tau(   2) = (  0.3300000  0.6700000  0.0000000  )

     number of k points=     1  Marzari-Vanderbilt smearing, width (Ry)=  0.0147
                       cart. coord. in units 2pi/alat
        k(    1) = (   0.0000000   0.0000000   0.0000000), wk =   2.0000000

                       cryst. coord.
        k(    1) = (   0.0000000   0.0000000   0.0000000), wk =   2.0000000

     Dense  grid:    64713 G-vectors     FFT dimensions: (  36,  36, 120)

     Smooth grid:    22975 G-vectors     FFT dimensions: (  25,  25,  80)

     Dynamical RAM for                 wfc:       0.35 MB

     Dynamical RAM for     wfc (w. buffer):       0.35 MB

     Dynamical RAM for           str. fact:       0.99 MB

     Dynamical RAM for           local pot:       0.00 MB

     Dynamical RAM for          nlocal pot:       1.57 MB

     Dynamical RAM for                qrad:       1.43 MB

     Dynamical RAM for          rho,v,vnew:       6.52 MB

     Dynamical RAM for               rhoin:       2.17 MB

     Dynamical RAM for            rho*nmix:      15.80 MB

     Dynamical RAM for           G-vectors:       3.88 MB

     Dynamical RAM for          h,s,v(r/c):       0.05 MB

     Dynamical RAM for          <psi|beta>:       0.00 MB

     Dynamical RAM for                 psi:       1.40 MB

     Dynamical RAM for                hpsi:       1.40 MB

     Dynamical RAM for                spsi:       1.40 MB

     Dynamical RAM for      wfcinit/wfcrot:       0.70 MB

     Dynamical RAM for           addusdens:     185.64 MB

     Dynamical RAM for          addusforce:     188.12 MB

     Dynamical RAM for         addusstress:     198.48 MB

     Estimated static dynamical RAM per process >      40.62 MB

     Estimated max dynamical RAM per process >     239.10 MB

     Initial potential from superposition of free atoms

     starting charge    7.99888, renormalised to    8.00000

     negative rho (up, down):  3.014E-06 0.000E+00
     Starting wfcs are    8 randomized atomic wfcs

     total cpu time spent up to now is        1.4 secs

     Self-consistent Calculation

     iteration #  1     ecut=    30.00 Ry     beta= 0.40
     Davidson diagonalization with overlap
     ethr =  1.00E-02,  avg # of iterations =  5.0

     negative rho (up, down):  2.513E-07 0.000E+00

     total cpu time spent up to now is        1.9 secs

     total energy              =     -22.31256998 Ry
     Harris-Foulkes estimate   =     -22.36586074 Ry
     estimated scf accuracy    <       0.22350268 Ry

     iteration #  2     ecut=    30.00 Ry     beta= 0.40
     Davidson diagonalization with overlap
     ethr =  2.79E-03,  avg # of iterations =  1.0

     negative rho (up, down):  3.964E-06 0.000E+00

     total cpu time spent up to now is        2.4 secs

     total energy              =     -22.30271911 Ry
     Harris-Foulkes estimate   =     -22.31969629 Ry
     estimated scf accuracy    <       0.05883812 Ry

     iteration #  3     ecut=    30.00 Ry     beta= 0.40
     Davidson diagonalization with overlap
     ethr =  7.35E-04,  avg # of iterations =  2.0

     negative rho (up, down):  1.482E-06 0.000E+00

     total cpu time spent up to now is        3.0 secs

     total energy              =     -22.30345539 Ry
     Harris-Foulkes estimate   =     -22.30447618 Ry
     estimated scf accuracy    <       0.00555296 Ry

     iteration #  4     ecut=    30.00 Ry     beta= 0.40
     Davidson diagonalization with overlap
     ethr =  6.94E-05,  avg # of iterations =  4.0

     negative rho (up, down):  2.628E-06 0.000E+00

     total cpu time spent up to now is        3.5 secs

     total energy              =     -22.30286769 Ry
     Harris-Foulkes estimate   =     -22.30365950 Ry
     estimated scf accuracy    <       0.00213457 Ry

     iteration #  5     ecut=    30.00 Ry     beta= 0.40
     Davidson diagonalization with overlap
     ethr =  2.67E-05,  avg # of iterations =  2.0

     negative rho (up, down):  1.747E-06 0.000E+00

     total cpu time spent up to now is        3.9 secs

     total energy              =     -22.30212333 Ry
     Harris-Foulkes estimate   =     -22.30453136 Ry
     estimated scf accuracy    <       0.00891332 Ry

     iteration #  6     ecut=    30.00 Ry     beta= 0.40
     Davidson diagonalization with overlap
     ethr =  2.67E-05,  avg # of iterations =  2.0

     negative rho (up, down):  1.303E-06 0.000E+00

     total cpu time spent up to now is        4.4 secs

     total energy              =     -22.30348168 Ry
     Harris-Foulkes estimate   =     -22.30347421 Ry
     estimated scf accuracy    <       0.00045639 Ry

     iteration #  7     ecut=    30.00 Ry     beta= 0.40
     Davidson diagonalization with overlap
     ethr =  5.70E-06,  avg # of iterations =  1.0

     negative rho (up, down):  1.327E-06 0.000E+00

     total cpu time spent up to now is        4.9 secs

     total energy              =     -22.30338905 Ry
     Harris-Foulkes estimate   =     -22.30349482 Ry
     estimated scf accuracy    <       0.00059184 Ry

     iteration #  8     ecut=    30.00 Ry     beta= 0.40
     Davidson diagonalization with overlap
     ethr =  5.70E-06,  avg # of iterations =  1.0

     negative rho (up, down):  1.312E-06 0.000E+00

     total cpu time spent up to now is        5.3 secs

     total energy              =     -22.30340748 Ry
     Harris-Foulkes estimate   =     -22.30341976 Ry
     estimated scf accuracy    <       0.00005875 Ry

     iteration #  9     ecut=    30.00 Ry     beta= 0.40
     Davidson diagonalization with overlap
     ethr =  7.34E-07,  avg # of iterations =  1.0

     negative rho (up, down):  1.307E-06 0.000E+00

     total cpu time spent up to now is        5.8 secs

     total energy              =     -22.30341330 Ry
     Harris-Foulkes estimate   =     -22.30341277 Ry
     estimated scf accuracy    <       0.00000088 Ry

     iteration # 10     ecut=    30.00 Ry     beta= 0.40
     Davidson diagonalization with overlap
     ethr =  1.10E-08,  avg # of iterations =  3.0

     negative rho (up, down):  1.308E-06 0.000E+00

     total cpu time spent up to now is        6.2 secs

     total energy              =     -22.30341237 Ry
     Harris-Foulkes estimate   =     -22.30341386 Ry
     estimated scf accuracy    <       0.00000708 Ry

     iteration # 11     ecut=    30.00 Ry     beta= 0.40
     Davidson diagonalization with overlap
     ethr =  1.10E-08,  avg # of iterations =  2.0

     negative rho (up, down):  1.307E-06 0.000E+00

     total cpu time spent up to now is        6.7 secs

     total energy              =     -22.30341295 Ry
     Harris-Foulkes estimate   =     -22.30341297 Ry
     estimated scf accuracy    <       0.00000006 Ry

     iteration # 12     ecut=    30.00 Ry     beta= 0.40
     Davidson diagonalization with overlap
     ethr =  7.99E-10,  avg # of iterations =  2.0

     negative rho (up, down):  1.307E-06 0.000E+00

     total cpu time spent up to now is        7.1 secs

     total energy              =     -22.30341296 Ry
     Harris-Foulkes estimate   =     -22.30341296 Ry
     estimated scf accuracy    <       0.00000003 Ry

     iteration # 13     ecut=    30.00 Ry     beta= 0.40
     Davidson diagonalization with overlap
     ethr =  3.61E-10,  avg # of iterations =  1.0

     negative rho (up, down):  1.307E-06 0.000E+00

     total cpu time spent up to now is        7.6 secs

     total energy              =     -22.30341296 Ry
     Harris-Foulkes estimate   =     -22.30341296 Ry
     estimated scf accuracy    <          5.0E-10 Ry

     iteration # 14     ecut=    30.00 Ry     beta= 0.40
     Davidson diagonalization with overlap
     ethr =  6.20E-12,  avg # of iterations =  4.0

     negative rho (up, down):  1.308E-06 0.000E+00

     total cpu time spent up to now is        8.0 secs

     End of self-consistent calculation

          k = 0.0000 0.0000 0.0000 (  2867 PWs)   bands (ev):

   -12.8420  -4.7729  -2.9394  -2.8961   0.4869   1.1620   1.3002   1.3657

     occupation numbers 
     1.0000   1.0000   1.0392   0.9608   0.0000   0.0000   0.0000   0.0000

     the Fermi energy is    -2.7306 ev

!    total energy              =     -22.30341296 Ry
     Harris-Foulkes estimate   =     -22.30341296 Ry
     estimated scf accuracy    <          7.5E-11 Ry

     The total energy is the sum of the following terms:

     one-electron contribution =     -39.18307704 Ry
     hartree contribution      =      21.22654590 Ry
     xc contribution           =     -12.33638792 Ry
     ewald contribution        =       7.98458886 Ry
     smearing contrib. (-TS)   =       0.00491722 Ry

     convergence has been achieved in  14 iterations

     negative rho (up, down):  1.308E-06 0.000E+00

     Forces acting on atoms (cartesian axes, Ry/au):

     atom    1 type  1   force =     0.00000000    0.00769819    0.00000000
     atom    2 type  1   force =     0.00000000   -0.00769819    0.00000000
     The non-local contrib.  to forces
     atom    1 type  1   force =     0.00000000    0.04368021    0.00000000
     atom    2 type  1   force =     0.00000000   -0.04371658    0.00000000
     The ionic contribution  to forces
     atom    1 type  1   force =    -0.00000000    0.06637603   -0.00000000
     atom    2 type  1   force =     0.00000000   -0.06637603   -0.00000000
     The local contribution  to forces
     atom    1 type  1   force =     0.00000000   -0.09741896    0.00000000
     atom    2 type  1   force =     0.00000000    0.09744175    0.00000000
     The core correction contribution to forces
     atom    1 type  1   force =     0.00000000   -0.00499113    0.00000000
     atom    2 type  1   force =    -0.00000000    0.00490913    0.00000000
     The Hubbard contrib.    to forces
     atom    1 type  1   force =     0.00000000    0.00000000    0.00000000
     atom    2 type  1   force =     0.00000000    0.00000000    0.00000000
     The SCF correction term to forces
     atom    1 type  1   force =    -0.00000000    0.00000426   -0.00000000
     atom    2 type  1   force =     0.00000000   -0.00000423   -0.00000000

     Total force =     0.010887     Total SCF correction =     0.000006


     Computing stress (Cartesian axis) and pressure


     negative rho (up, down):  1.308E-06 0.000E+00
          total   stress  (Ry/bohr**3)                   (kbar)     P=   26.45
   0.00020360   0.00000000   0.00000000         29.95      0.00      0.00
   0.00000000   0.00033599   0.00000000          0.00     49.43      0.00
   0.00000000   0.00000000  -0.00000027          0.00      0.00     -0.04

     kinetic stress (kbar)    639.01     -0.00     -0.00
                                0.00    664.52      0.00
                                0.00     -0.00    652.43

     local   stress (kbar)  -6579.35     -0.00     -0.00
                               -0.00  -6655.78     -0.00
                               -0.00     -0.00   6888.47

     nonloc. stress (kbar)    392.37     -0.00      0.00
                                0.00    407.88      0.00
                                0.00      0.00    296.25

     hartree stress (kbar)   2919.42      0.00      0.00
                                0.00   2927.99      0.00
                                0.00      0.00  -2822.53

     exc-cor stress (kbar)    771.69      0.00     -0.00
                                0.00    772.37     -0.00
                               -0.00     -0.00    762.42

     corecor stress (kbar)  -1036.92     -0.00      0.00
                               -0.00  -1039.41      0.00
                                0.00      0.00  -1019.35

     ewald   stress (kbar)   2923.73      0.00     -0.00
                                0.00   2971.85     -0.00
                               -0.00     -0.00  -4757.74

     hubbard stress (kbar)      0.00      0.00      0.00
                                0.00      0.00      0.00
                                0.00      0.00      0.00

     london  stress (kbar)      0.00      0.00      0.00
                                0.00      0.00      0.00
                                0.00      0.00      0.00

     DFT-D3  stress (kbar)      0.00      0.00      0.00
                                0.00      0.00      0.00
                                0.00      0.00      0.00

     XDM     stress (kbar)      0.00      0.00      0.00
                                0.00      0.00      0.00
                                0.00      0.00      0.00

     dft-nl  stress (kbar)      0.00      0.00      0.00
                                0.00      0.00      0.00
                                0.00      0.00      0.00

     TS-vdW  stress (kbar)      0.00      0.00      0.00
                                0.00      0.00      0.00
                                0.00      0.00      0.00



     Writing output data file silicene.save/

     init_run     :      0.81s CPU      0.89s WALL (       1 calls)
     electrons    :      6.21s CPU      6.61s WALL (       1 calls)
     forces       :      0.54s CPU      0.57s WALL (       1 calls)
     stress       :      1.62s CPU      1.66s WALL (       1 calls)

     Called by init_run:
     wfcinit      :      0.01s CPU      0.01s WALL (       1 calls)
     wfcinit:atom :      0.00s CPU      0.00s WALL (       1 calls)
     wfcinit:wfcr :      0.01s CPU      0.01s WALL (       1 calls)
     potinit      :      0.17s CPU      0.17s WALL (       1 calls)
     hinit0       :      0.49s CPU      0.49s WALL (       1 calls)

     Called by electrons:
     c_bands      :      0.44s CPU      0.45s WALL (      14 calls)
     sum_band     :      2.43s CPU      2.59s WALL (      14 calls)
     v_of_rho     :      0.94s CPU      0.95s WALL (      15 calls)
     v_h          :      0.06s CPU      0.06s WALL (      15 calls)
     v_xc         :      0.98s CPU      1.01s WALL (      17 calls)
     newd         :      2.37s CPU      2.67s WALL (      15 calls)
     mix_rho      :      0.14s CPU      0.14s WALL (      14 calls)

     Called by c_bands:
     init_us_2    :      0.02s CPU      0.02s WALL (      29 calls)
     cegterg      :      0.36s CPU      0.36s WALL (      14 calls)

     Called by sum_band:
     sum_band:bec :      0.00s CPU      0.00s WALL (      14 calls)
     addusdens    :      2.26s CPU      2.42s WALL (      14 calls)

     Called by *egterg:
     h_psi        :      0.26s CPU      0.26s WALL (      46 calls)
     s_psi        :      0.04s CPU      0.04s WALL (      46 calls)
     g_psi        :      0.00s CPU      0.00s WALL (      31 calls)
     cdiaghg      :      0.00s CPU      0.00s WALL (      45 calls)
     cegterg:over :      0.02s CPU      0.02s WALL (      31 calls)
     cegterg:upda :      0.01s CPU      0.01s WALL (      31 calls)
     cegterg:last :      0.01s CPU      0.01s WALL (      14 calls)

     Called by h_psi:
     h_psi:pot    :      0.26s CPU      0.26s WALL (      46 calls)
     h_psi:calbec :      0.05s CPU      0.05s WALL (      46 calls)
     vloc_psi     :      0.17s CPU      0.17s WALL (      46 calls)
     add_vuspsi   :      0.04s CPU      0.04s WALL (      46 calls)

     General routines
     calbec       :      0.07s CPU      0.07s WALL (      65 calls)
     fft          :      0.60s CPU      0.60s WALL (     218 calls)
     ffts         :      0.01s CPU      0.02s WALL (      29 calls)
     fftw         :      0.16s CPU      0.16s WALL (     632 calls)
     interpolate  :      0.05s CPU      0.05s WALL (      15 calls)

     Parallel routines

     PWSCF        :      9.67s CPU     10.26s WALL


   This run was terminated on:  21:36:27  22Sep2023            

=------------------------------------------------------------------------------=
   JOB DONE.
=------------------------------------------------------------------------------=
