
     Program PWSCF v.6.4.1 starts on 22Sep2023 at 23:41:15 

     This program is part of the open-source Quantum ESPRESSO suite
     for quantum simulation of materials; please cite
         "P. Giannozzi et al., J. Phys.:Condens. Matter 21 395502 (2009);
         "P. Giannozzi et al., J. Phys.:Condens. Matter 29 465901 (2017);
          URL http://www.quantum-espresso.org", 
     in publications or presentations arising from this work. More details at
     http://www.quantum-espresso.org/quote

     Parallel version (MPI), running on     1 processors

     MPI processes distributed on     1 nodes
     Waiting for input...
     Reading input from standard input

     Current dimensions of program PWSCF are:
     Max number of different atomic species (ntypx) = 10
     Max number of k-points (npk) =  40000
     Max angular momentum in pseudopotentials (lmaxx) =  3
     Message from routine read_upf::
     Pseudo file Si.pbe-n-rrkjus_psl.1.0.0.UPF has been fixed on the fly.
To avoid this message in the future, permanently fix 
 your pseudo files following these instructions: 
https://gitlab.com/QEF/q-e/blob/master/upftools/how_to_fix_upf.md

     Subspace diagonalization in iterative solution of the eigenvalue problem:
     a serial algorithm will be used

     Message from routine setup:
     DEPRECATED: symmetry with ibrav=0, use correct ibrav instead

     G-vector sticks info
     --------------------
     sticks:   dense  smooth     PW     G-vecs:    dense   smooth      PW
     Sum         859     433    151                64713    22975    4467



     bravais-lattice index     =            0
     lattice parameter (alat)  =       7.2375  a.u.
     unit-cell volume          =    1032.2806 (a.u.)^3
     number of atoms/cell      =            2
     number of atomic types    =            1
     number of electrons       =         8.00
     number of Kohn-Sham states=            8
     kinetic-energy cutoff     =      30.0000  Ry
     charge density cutoff     =     240.0000  Ry
     convergence threshold     =      4.0E-10
     mixing beta               =       0.4000
     number of iterations used =            8  plain     mixing
     Exchange-correlation      = PBE ( 1  4  3  4 0 0)

     celldm(1)=   7.237514  celldm(2)=   0.000000  celldm(3)=   0.000000
     celldm(4)=   0.000000  celldm(5)=   0.000000  celldm(6)=   0.000000

     crystal axes: (cart. coord. in units of alat)
               a(1) = (   0.502620  -0.864507   0.000000 )  
               a(2) = (   0.502620   0.864507   0.000000 )  
               a(3) = (   0.000000   0.000000   3.133218 )  

     reciprocal axes: (cart. coord. in units 2 pi/alat)
               b(1) = (  0.994786 -0.578364  0.000000 )  
               b(2) = (  0.994786  0.578364 -0.000000 )  
               b(3) = ( -0.000000  0.000000  0.319161 )  


     PseudoPot. # 1 for Si read from file:
     /home/meyn/q-e-qe-7.1/pseudo/Si.pbe-n-rrkjus_psl.1.0.0.UPF
     MD5 check sum: 56671f82560c68743c116fe4c72cdc4c
     Pseudo is Ultrasoft + core correction, Zval =  4.0
     Generated using "atomic" code by A. Dal Corso v.5.1.2
     Using radial grid of 1141 points,  6 beta functions with: 
                l(1) =   0
                l(2) =   0
                l(3) =   1
                l(4) =   1
                l(5) =   2
                l(6) =   2
     Q(r) pseudized with 0 coefficients 


     atomic species   valence    mass     pseudopotential
        Si             4.00    28.08550     Si( 1.00)

      4 Sym. Ops. (no inversion) found


                                    s                        frac. trans.

      isym =  1     identity                                     

 cryst.   s( 1) = (     1          0          0      )
                  (     0          1          0      )
                  (     0          0          1      )

 cart.    s( 1) = (  1.0000000  0.0000000  0.0000000 )
                  (  0.0000000  1.0000000  0.0000000 )
                  (  0.0000000  0.0000000  1.0000000 )


      isym =  2     180 deg rotation - cart. axis [0,1,0]        

 cryst.   s( 2) = (     0         -1          0      )
                  (    -1          0          0      )
                  (     0          0         -1      )

 cart.    s( 2) = ( -1.0000000  0.0000000  0.0000000 )
                  (  0.0000000  1.0000000  0.0000000 )
                  (  0.0000000  0.0000000 -1.0000000 )


      isym =  3     inv. 180 deg rotation - cart. axis [0,0,1]   

 cryst.   s( 3) = (     1          0          0      )
                  (     0          1          0      )
                  (     0          0         -1      )

 cart.    s( 3) = (  1.0000000  0.0000000  0.0000000 )
                  (  0.0000000  1.0000000  0.0000000 )
                  (  0.0000000  0.0000000 -1.0000000 )


      isym =  4     inv. 180 deg rotation - cart. axis [1,0,0]   

 cryst.   s( 4) = (     0         -1          0      )
                  (    -1          0          0      )
                  (     0          0          1      )

 cart.    s( 4) = ( -1.0000000  0.0000000  0.0000000 )
                  (  0.0000000  1.0000000  0.0000000 )
                  (  0.0000000  0.0000000  1.0000000 )


   Cartesian axes

     site n.     atom                  positions (alat units)
         1           Si  tau(   1) = (   0.0000000   0.0000000   0.0000000  )
         2           Si  tau(   2) = (   0.5026205   0.2939324   0.0000000  )

   Crystallographic axes

     site n.     atom                  positions (cryst. coord.)
         1           Si  tau(   1) = (  0.0000000  0.0000000  0.0000000  )
         2           Si  tau(   2) = (  0.3300000  0.6700000  0.0000000  )

     number of k points=    31  Marzari-Vanderbilt smearing, width (Ry)=  0.0147
                       cart. coord. in units 2pi/alat
        k(    1) = (   0.0000000   0.0000000   0.0000000), wk =   0.0200000
        k(    2) = (   0.0994786   0.0578364   0.0000000), wk =   0.0800000
        k(    3) = (   0.1989573   0.1156728   0.0000000), wk =   0.0800000
        k(    4) = (   0.2984359   0.1735093   0.0000000), wk =   0.0800000
        k(    5) = (   0.3979146   0.2313457   0.0000000), wk =   0.0800000
        k(    6) = (  -0.4973932  -0.2891821   0.0000000), wk =   0.0400000
        k(    7) = (   0.1989573   0.0000000   0.0000000), wk =   0.0400000
        k(    8) = (   0.2984359   0.0578364   0.0000000), wk =   0.0800000
        k(    9) = (   0.3979146   0.1156728   0.0000000), wk =   0.0800000
        k(   10) = (   0.4973932   0.1735093   0.0000000), wk =   0.0800000
        k(   11) = (  -0.3979146  -0.3470185   0.0000000), wk =   0.0800000
        k(   12) = (  -0.2984359  -0.2891821   0.0000000), wk =   0.0800000
        k(   13) = (  -0.1989573  -0.2313457   0.0000000), wk =   0.0800000
        k(   14) = (  -0.0994786  -0.1735093   0.0000000), wk =   0.0800000
        k(   15) = (   0.0000000  -0.1156728   0.0000000), wk =   0.0400000
        k(   16) = (   0.3979146   0.0000000   0.0000000), wk =   0.0400000
        k(   17) = (   0.4973932   0.0578364   0.0000000), wk =   0.0800000
        k(   18) = (   0.5968718   0.1156728   0.0000000), wk =   0.0800000
        k(   19) = (  -0.2984359  -0.4048549   0.0000000), wk =   0.0800000
        k(   20) = (  -0.1989573  -0.3470185   0.0000000), wk =   0.0800000
        k(   21) = (  -0.0994786  -0.2891821   0.0000000), wk =   0.0800000
        k(   22) = (   0.0000000  -0.2313457   0.0000000), wk =   0.0400000
        k(   23) = (   0.5968718   0.0000000   0.0000000), wk =   0.0400000
        k(   24) = (   0.6963505   0.0578364   0.0000000), wk =   0.0800000
        k(   25) = (  -0.1989573  -0.4626914   0.0000000), wk =   0.0800000
        k(   26) = (  -0.0994786  -0.4048549   0.0000000), wk =   0.0800000
        k(   27) = (  -0.0000000  -0.3470185   0.0000000), wk =   0.0400000
        k(   28) = (   0.7958291   0.0000000   0.0000000), wk =   0.0400000
        k(   29) = (  -0.0994786  -0.5205278   0.0000000), wk =   0.0800000
        k(   30) = (   0.0000000  -0.4626914   0.0000000), wk =   0.0400000
        k(   31) = (  -0.9947864   0.0000000   0.0000000), wk =   0.0200000

                       cryst. coord.
        k(    1) = (   0.0000000   0.0000000   0.0000000), wk =   0.0200000
        k(    2) = (   0.0000000   0.1000000   0.0000000), wk =   0.0800000
        k(    3) = (   0.0000000   0.2000000   0.0000000), wk =   0.0800000
        k(    4) = (   0.0000000   0.3000000   0.0000000), wk =   0.0800000
        k(    5) = (   0.0000000   0.4000000   0.0000000), wk =   0.0800000
        k(    6) = (   0.0000000  -0.5000000   0.0000000), wk =   0.0400000
        k(    7) = (   0.1000000   0.1000000   0.0000000), wk =   0.0400000
        k(    8) = (   0.1000000   0.2000000   0.0000000), wk =   0.0800000
        k(    9) = (   0.1000000   0.3000000   0.0000000), wk =   0.0800000
        k(   10) = (   0.1000000   0.4000000   0.0000000), wk =   0.0800000
        k(   11) = (   0.1000000  -0.5000000   0.0000000), wk =   0.0800000
        k(   12) = (   0.1000000  -0.4000000   0.0000000), wk =   0.0800000
        k(   13) = (   0.1000000  -0.3000000   0.0000000), wk =   0.0800000
        k(   14) = (   0.1000000  -0.2000000   0.0000000), wk =   0.0800000
        k(   15) = (   0.1000000  -0.1000000   0.0000000), wk =   0.0400000
        k(   16) = (   0.2000000   0.2000000   0.0000000), wk =   0.0400000
        k(   17) = (   0.2000000   0.3000000   0.0000000), wk =   0.0800000
        k(   18) = (   0.2000000   0.4000000   0.0000000), wk =   0.0800000
        k(   19) = (   0.2000000  -0.5000000   0.0000000), wk =   0.0800000
        k(   20) = (   0.2000000  -0.4000000   0.0000000), wk =   0.0800000
        k(   21) = (   0.2000000  -0.3000000   0.0000000), wk =   0.0800000
        k(   22) = (   0.2000000  -0.2000000   0.0000000), wk =   0.0400000
        k(   23) = (   0.3000000   0.3000000   0.0000000), wk =   0.0400000
        k(   24) = (   0.3000000   0.4000000   0.0000000), wk =   0.0800000
        k(   25) = (   0.3000000  -0.5000000   0.0000000), wk =   0.0800000
        k(   26) = (   0.3000000  -0.4000000   0.0000000), wk =   0.0800000
        k(   27) = (   0.3000000  -0.3000000   0.0000000), wk =   0.0400000
        k(   28) = (   0.4000000   0.4000000   0.0000000), wk =   0.0400000
        k(   29) = (   0.4000000  -0.5000000   0.0000000), wk =   0.0800000
        k(   30) = (   0.4000000  -0.4000000   0.0000000), wk =   0.0400000
        k(   31) = (  -0.5000000  -0.5000000   0.0000000), wk =   0.0200000

     Dense  grid:    64713 G-vectors     FFT dimensions: (  36,  36, 120)

     Smooth grid:    22975 G-vectors     FFT dimensions: (  25,  25,  80)

     Dynamical RAM for                 wfc:       0.35 MB

     Dynamical RAM for     wfc (w. buffer):      11.19 MB

     Dynamical RAM for           str. fact:       0.99 MB

     Dynamical RAM for           local pot:       0.00 MB

     Dynamical RAM for          nlocal pot:       1.57 MB

     Dynamical RAM for                qrad:       1.43 MB

     Dynamical RAM for          rho,v,vnew:       6.52 MB

     Dynamical RAM for               rhoin:       2.17 MB

     Dynamical RAM for            rho*nmix:      15.80 MB

     Dynamical RAM for           G-vectors:       3.88 MB

     Dynamical RAM for          h,s,v(r/c):       0.05 MB

     Dynamical RAM for          <psi|beta>:       0.00 MB

     Dynamical RAM for                 psi:       1.40 MB

     Dynamical RAM for                hpsi:       1.40 MB

     Dynamical RAM for                spsi:       1.40 MB

     Dynamical RAM for      wfcinit/wfcrot:       0.70 MB

     Dynamical RAM for           addusdens:     185.64 MB

     Dynamical RAM for          addusforce:     188.12 MB

     Dynamical RAM for         addusstress:     198.48 MB

     Estimated static dynamical RAM per process >      51.46 MB

     Estimated max dynamical RAM per process >     249.94 MB

     Initial potential from superposition of free atoms

     starting charge    7.99888, renormalised to    8.00000

     negative rho (up, down):  3.014E-06 0.000E+00
     Starting wfcs are    8 randomized atomic wfcs

     total cpu time spent up to now is        1.9 secs

     Self-consistent Calculation

     iteration #  1     ecut=    30.00 Ry     beta= 0.40
     Davidson diagonalization with overlap
     ethr =  1.00E-02,  avg # of iterations =  4.7

     Threshold (ethr) on eigenvalues was too large:
     Diagonalizing with lowered threshold

     Davidson diagonalization with overlap
     ethr =  9.17E-04,  avg # of iterations =  1.2

     negative rho (up, down):  1.972E-06 0.000E+00

     total cpu time spent up to now is        5.5 secs

     total energy              =     -22.74146409 Ry
     Harris-Foulkes estimate   =     -22.76134656 Ry
     estimated scf accuracy    <       0.07239073 Ry

     iteration #  2     ecut=    30.00 Ry     beta= 0.40
     Davidson diagonalization with overlap
     ethr =  9.05E-04,  avg # of iterations =  1.0

     negative rho (up, down):  4.078E-06 0.000E+00

     total cpu time spent up to now is        7.1 secs

     total energy              =     -22.73809049 Ry
     Harris-Foulkes estimate   =     -22.74379197 Ry
     estimated scf accuracy    <       0.01722437 Ry

     iteration #  3     ecut=    30.00 Ry     beta= 0.40
     Davidson diagonalization with overlap
     ethr =  2.15E-04,  avg # of iterations =  3.6

     negative rho (up, down):  2.989E-06 0.000E+00

     total cpu time spent up to now is        8.7 secs

     total energy              =     -22.73992621 Ry
     Harris-Foulkes estimate   =     -22.74012146 Ry
     estimated scf accuracy    <       0.00062460 Ry

     iteration #  4     ecut=    30.00 Ry     beta= 0.40
     Davidson diagonalization with overlap
     ethr =  7.81E-06,  avg # of iterations =  5.5

     negative rho (up, down):  2.352E-06 0.000E+00

     total cpu time spent up to now is       11.0 secs

     total energy              =     -22.74001330 Ry
     Harris-Foulkes estimate   =     -22.74011295 Ry
     estimated scf accuracy    <       0.00016135 Ry

     iteration #  5     ecut=    30.00 Ry     beta= 0.40
     Davidson diagonalization with overlap
     ethr =  2.02E-06,  avg # of iterations =  2.5

     negative rho (up, down):  2.088E-06 0.000E+00

     total cpu time spent up to now is       12.7 secs

     total energy              =     -22.74004578 Ry
     Harris-Foulkes estimate   =     -22.74004756 Ry
     estimated scf accuracy    <       0.00000435 Ry

     iteration #  6     ecut=    30.00 Ry     beta= 0.40
     Davidson diagonalization with overlap
     ethr =  5.44E-08,  avg # of iterations =  2.1

     negative rho (up, down):  1.986E-06 0.000E+00

     total cpu time spent up to now is       14.5 secs

     total energy              =     -22.74004661 Ry
     Harris-Foulkes estimate   =     -22.74004655 Ry
     estimated scf accuracy    <       0.00000013 Ry

     iteration #  7     ecut=    30.00 Ry     beta= 0.40
     Davidson diagonalization with overlap
     ethr =  1.58E-09,  avg # of iterations =  1.9

     negative rho (up, down):  1.947E-06 0.000E+00

     total cpu time spent up to now is       16.0 secs

     total energy              =     -22.74004658 Ry
     Harris-Foulkes estimate   =     -22.74004662 Ry
     estimated scf accuracy    <       0.00000009 Ry

     iteration #  8     ecut=    30.00 Ry     beta= 0.40
     Davidson diagonalization with overlap
     ethr =  1.16E-09,  avg # of iterations =  2.0

     negative rho (up, down):  1.941E-06 0.000E+00

     total cpu time spent up to now is       17.7 secs

     total energy              =     -22.74004659 Ry
     Harris-Foulkes estimate   =     -22.74004659 Ry
     estimated scf accuracy    <          3.0E-09 Ry

     iteration #  9     ecut=    30.00 Ry     beta= 0.40
     Davidson diagonalization with overlap
     ethr =  3.74E-11,  avg # of iterations =  2.5

     negative rho (up, down):  1.955E-06 0.000E+00

     total cpu time spent up to now is       19.2 secs

     End of self-consistent calculation

          k = 0.0000 0.0000 0.0000 (  2867 PWs)   bands (ev):

   -13.2223  -4.8632  -3.4920  -3.3426   0.1598   0.8462   1.1136   1.3578

     occupation numbers 
     1.0000   1.0000   1.0000   1.0000   0.0000   0.0000   0.0000   0.0000

          k = 0.0995 0.0578 0.0000 (  2881 PWs)   bands (ev):

   -13.1044  -4.7483  -4.2092  -3.6392   0.4588   1.2349   1.4835   1.4920

     occupation numbers 
     1.0000   1.0000   1.0000   1.0000   0.0000   0.0000   0.0000   0.0000

          k = 0.1990 0.1157 0.0000 (  2872 PWs)   bands (ev):

   -12.7551  -5.7086  -4.4074  -4.0496   0.0102   1.8817   2.5316   2.5839

     occupation numbers 
     1.0000   1.0000   1.0000   1.0000   0.0000   0.0000   0.0000   0.0000

          k = 0.2984 0.1735 0.0000 (  2872 PWs)   bands (ev):

   -12.1912  -7.2266  -4.4415  -3.8569  -0.4807   1.0434   2.5295   4.1433

     occupation numbers 
     1.0000   1.0000   1.0000   1.0000   0.0000   0.0000   0.0000   0.0000

          k = 0.3979 0.2313 0.0000 (  2873 PWs)   bands (ev):

   -11.4769  -8.5439  -4.7047  -3.1613  -0.8124  -0.2471   3.4095   5.0862

     occupation numbers 
     1.0000   1.0000   1.0000   1.0000   0.0000   0.0000   0.0000   0.0000

          k =-0.4974-0.2892 0.0000 (  2876 PWs)   bands (ev):

   -10.9946  -9.2313  -4.7961  -2.6959  -0.9276  -0.9152   4.2414   4.8298

     occupation numbers 
     1.0000   1.0000   1.0000   1.0000   0.0000   0.0000   0.0000   0.0000

          k = 0.1990 0.0000 0.0000 (  2883 PWs)   bands (ev):

   -12.8731  -5.1845  -4.5223  -4.1213   0.8467   1.1129   1.7503   2.9159

     occupation numbers 
     1.0000   1.0000   1.0000   1.0000   0.0000   0.0000   0.0000   0.0000

          k = 0.2984 0.0578 0.0000 (  2874 PWs)   bands (ev):

   -12.4169  -6.5539  -4.6760  -4.0769   0.4567   1.6597   2.2608   2.3263

     occupation numbers 
     1.0000   1.0000   1.0000   1.0000   0.0000   0.0000   0.0000   0.0000

          k = 0.3979 0.1157 0.0000 (  2857 PWs)   bands (ev):

   -11.7661  -7.9265  -5.0803  -3.4418   0.0633   0.3314   3.0329   3.9700

     occupation numbers 
     1.0000   1.0000   1.0000   1.0000   0.0000   0.0000   0.0000   0.0000

          k = 0.4974 0.1735 0.0000 (  2859 PWs)   bands (ev):

   -11.0626  -9.0186  -5.2818  -2.7593  -0.7256  -0.1539   3.9805   4.1058

     occupation numbers 
     1.0000   1.0000   1.0000   1.0000   0.0000   0.0000   0.0000   0.0000

          k =-0.3979-0.3470 0.0000 (  2865 PWs)   bands (ev):

   -11.0487  -9.0423  -5.2664  -2.7473  -0.7452  -0.1612   3.9926   4.1297

     occupation numbers 
     1.0000   1.0000   1.0000   1.0000   0.0000   0.0000   0.0000   0.0000

          k =-0.2984-0.2892 0.0000 (  2861 PWs)   bands (ev):

   -11.7492  -7.9748  -5.0327  -3.4269   0.0436   0.2941   3.0435   3.8868

     occupation numbers 
     1.0000   1.0000   1.0000   1.0000   0.0000   0.0000   0.0000   0.0000

          k =-0.1990-0.2313 0.0000 (  2863 PWs)   bands (ev):

   -12.4044  -6.6251  -4.5930  -4.0658   0.4337   1.6140   2.2395   2.2797

     occupation numbers 
     1.0000   1.0000   1.0000   1.0000   0.0000   0.0000   0.0000   0.0000

          k =-0.0995-0.1735 0.0000 (  2874 PWs)   bands (ev):

   -12.8656  -5.2816  -4.5157  -4.0060   0.9074   0.9853   1.7542   2.9046

     occupation numbers 
     1.0000   1.0000   1.0000   1.0000   0.0000   0.0000   0.0000   0.0000

          k = 0.0000-0.1157 0.0000 (  2885 PWs)   bands (ev):

   -13.1020  -4.7461  -4.2828  -3.5564   0.4573   1.2985   1.3882   1.4913

     occupation numbers 
     1.0000   1.0000   1.0000   1.0000   0.0000   0.0000   0.0000   0.0000

          k = 0.3979 0.0000 0.0000 (  2866 PWs)   bands (ev):

   -11.8666  -7.5573  -5.4856  -3.5396   0.6444   1.5415   2.1816   2.9088

     occupation numbers 
     1.0000   1.0000   1.0000   1.0000   0.0000   0.0000   0.0000   0.0000

          k = 0.4974 0.0578 0.0000 (  2850 PWs)   bands (ev):

   -11.1557  -8.6248  -5.9923  -2.8472  -0.3912   1.5075   3.1964   3.6292

     occupation numbers 
     1.0000   1.0000   1.0000   1.0000   0.0000   0.0000   0.0000   0.0000

          k = 0.5969 0.1157 0.0000 (  2866 PWs)   bands (ev):

   -10.6173  -9.3138  -6.1386  -2.3287  -1.0466   1.4198   3.0103   4.4510

     occupation numbers 
     1.0000   1.0000   1.0000   1.0410   0.0000   0.0000   0.0000   0.0000

          k =-0.2984-0.4049 0.0000 (  2858 PWs)   bands (ev):

   -11.1147  -8.7071  -5.9423  -2.8117  -0.4545   1.5072   3.2417   3.5366

     occupation numbers 
     1.0000   1.0000   1.0000   1.0000   0.0000   0.0000   0.0000   0.0000

          k =-0.1990-0.3470 0.0000 (  2870 PWs)   bands (ev):

   -11.8337  -7.6633  -5.3971  -3.5108   0.5715   1.6316   1.9760   2.9250

     occupation numbers 
     1.0000   1.0000   1.0000   1.0000   0.0000   0.0000   0.0000   0.0000

          k =-0.0995-0.2892 0.0000 (  2872 PWs)   bands (ev):

   -12.3952  -6.6490  -4.5863  -4.0578   0.4544   1.6027   2.2160   2.2809

     occupation numbers 
     1.0000   1.0000   1.0000   1.0000   0.0000   0.0000   0.0000   0.0000

          k = 0.0000-0.2313 0.0000 (  2865 PWs)   bands (ev):

   -12.7444  -5.7662  -4.3980  -3.9989   0.0319   1.8878   2.4550   2.5071

     occupation numbers 
     1.0000   1.0000   1.0000   1.0000   0.0000   0.0000   0.0000   0.0000

          k = 0.5969 0.0000 0.0000 (  2850 PWs)   bands (ev):

   -10.4305  -9.3683  -6.5438  -2.1416  -1.1344   2.5659   3.0427   3.7258

     occupation numbers 
     1.0000   1.0000   1.0000   1.0451   0.0000   0.0000   0.0000   0.0000

          k = 0.6964 0.0578 0.0000 (  2847 PWs)   bands (ev):

   -10.3424  -9.4830  -6.5160  -2.0681  -1.2244   2.5852   3.1199   3.5424

     occupation numbers 
     1.0000   1.0000   1.0000   0.8949   0.0000   0.0000   0.0000   0.0000

          k =-0.1990-0.4627 0.0000 (  2849 PWs)   bands (ev):

   -11.0832  -8.7542  -5.9327  -2.7853  -0.4881   1.4843   3.2400   3.5650

     occupation numbers 
     1.0000   1.0000   1.0000   1.0000   0.0000   0.0000   0.0000   0.0000

          k =-0.0995-0.4049 0.0000 (  2859 PWs)   bands (ev):

   -11.7172  -8.0276  -5.0274  -3.3996   0.0405   0.2589   3.0572   3.8865

     occupation numbers 
     1.0000   1.0000   1.0000   1.0000   0.0000   0.0000   0.0000   0.0000

          k =-0.0000-0.3470 0.0000 (  2871 PWs)   bands (ev):

   -12.1631  -7.2901  -4.4159  -3.8325  -0.4786   1.0032   2.5435   4.0580

     occupation numbers 
     1.0000   1.0000   1.0000   1.0000   0.0000   0.0000   0.0000   0.0000

          k = 0.7958 0.0000 0.0000 (  2856 PWs)   bands (ev):

   -10.4823  -9.4836  -6.1088  -2.2206  -1.1748   1.3868   3.0247   4.5317

     occupation numbers 
     1.0000   1.0000   1.0000   1.0828   0.0000   0.0000   0.0000   0.0000

          k =-0.0995-0.5205 0.0000 (  2862 PWs)   bands (ev):

   -10.9517  -9.1675  -5.2549  -2.6674  -0.8393  -0.1806   4.0269   4.1167

     occupation numbers 
     1.0000   1.0000   1.0000   1.0000   0.0000   0.0000   0.0000   0.0000

          k = 0.0000-0.4627 0.0000 (  2883 PWs)   bands (ev):

   -11.4089  -8.6427  -4.6930  -3.1036  -0.8239  -0.3201   3.4367   5.0994

     occupation numbers 
     1.0000   1.0000   1.0000   1.0000   0.0000   0.0000   0.0000   0.0000

          k =-0.9948 0.0000 0.0000 (  2888 PWs)   bands (ev):

   -10.8574  -9.3980  -4.7888  -2.5848  -1.0415  -0.9437   4.3102   4.8106

     occupation numbers 
     1.0000   1.0000   1.0000   1.0004   0.0000   0.0000   0.0000   0.0000

     the Fermi energy is    -1.9282 ev

!    total energy              =     -22.74004659 Ry
     Harris-Foulkes estimate   =     -22.74004659 Ry
     estimated scf accuracy    <          1.1E-10 Ry

     The total energy is the sum of the following terms:

     one-electron contribution =     -39.49709892 Ry
     hartree contribution      =      20.98682991 Ry
     xc contribution           =     -12.21465153 Ry
     ewald contribution        =       7.98458886 Ry
     smearing contrib. (-TS)   =       0.00028509 Ry

     convergence has been achieved in   9 iterations

     negative rho (up, down):  1.955E-06 0.000E+00

     Forces acting on atoms (cartesian axes, Ry/au):

     atom    1 type  1   force =     0.00000000    0.02202049    0.00000000
     atom    2 type  1   force =     0.00000000   -0.02202049    0.00000000
     The non-local contrib.  to forces
     atom    1 type  1   force =    -0.00000000    0.02351395    0.00000000
     atom    2 type  1   force =    -0.00000000   -0.02355666    0.00000000
     The ionic contribution  to forces
     atom    1 type  1   force =    -0.00000000    0.06637603   -0.00000000
     atom    2 type  1   force =     0.00000000   -0.06637603   -0.00000000
     The local contribution  to forces
     atom    1 type  1   force =     0.00000000   -0.06511344    0.00000000
     atom    2 type  1   force =     0.00000000    0.06512011    0.00000000
     The core correction contribution to forces
     atom    1 type  1   force =     0.00000000   -0.00276764   -0.00000000
     atom    2 type  1   force =    -0.00000000    0.00278033   -0.00000000
     The Hubbard contrib.    to forces
     atom    1 type  1   force =     0.00000000    0.00000000    0.00000000
     atom    2 type  1   force =     0.00000000    0.00000000    0.00000000
     The SCF correction term to forces
     atom    1 type  1   force =    -0.00000000   -0.00000011   -0.00000000
     atom    2 type  1   force =     0.00000000    0.00000007   -0.00000000

     Total force =     0.031142     Total SCF correction =     0.000000


     Computing stress (Cartesian axis) and pressure


     negative rho (up, down):  1.955E-06 0.000E+00
          total   stress  (Ry/bohr**3)                   (kbar)     P=   12.39
   0.00008685   0.00000000   0.00000000         12.78      0.00      0.00
   0.00000000   0.00016620   0.00000000          0.00     24.45      0.00
   0.00000000   0.00000000  -0.00000043          0.00      0.00     -0.06

     kinetic stress (kbar)    527.59      0.00      0.00
                                0.00    525.43      0.00
                                0.00      0.00    656.12

     local   stress (kbar)  -6541.58     -0.00     -0.00
                               -0.00  -6588.54     -0.00
                               -0.00     -0.00   6824.15

     nonloc. stress (kbar)    447.69      0.00      0.00
                                0.00    454.58      0.00
                                0.00      0.00    379.01

     hartree stress (kbar)   2913.56      0.00      0.00
                                0.00   2919.88      0.00
                                0.00      0.00  -2842.71

     exc-cor stress (kbar)    778.06      0.00     -0.00
                                0.00    778.41     -0.00
                               -0.00     -0.00    768.95

     corecor stress (kbar)  -1036.27     -0.00     -0.00
                               -0.00  -1037.17     -0.00
                               -0.00     -0.00  -1027.85

     ewald   stress (kbar)   2923.73      0.00     -0.00
                                0.00   2971.85     -0.00
                               -0.00     -0.00  -4757.74

     hubbard stress (kbar)      0.00      0.00      0.00
                                0.00      0.00      0.00
                                0.00      0.00      0.00

     london  stress (kbar)      0.00      0.00      0.00
                                0.00      0.00      0.00
                                0.00      0.00      0.00

     DFT-D3  stress (kbar)      0.00      0.00      0.00
                                0.00      0.00      0.00
                                0.00      0.00      0.00

     XDM     stress (kbar)      0.00      0.00      0.00
                                0.00      0.00      0.00
                                0.00      0.00      0.00

     dft-nl  stress (kbar)      0.00      0.00      0.00
                                0.00      0.00      0.00
                                0.00      0.00      0.00

     TS-vdW  stress (kbar)      0.00      0.00      0.00
                                0.00      0.00      0.00
                                0.00      0.00      0.00



     Writing output data file silicene.save/

     init_run     :      1.25s CPU      1.32s WALL (       1 calls)
     electrons    :     16.60s CPU     17.39s WALL (       1 calls)
     forces       :      0.87s CPU      0.93s WALL (       1 calls)
     stress       :      2.16s CPU      2.26s WALL (       1 calls)

     Called by init_run:
     wfcinit      :      0.40s CPU      0.40s WALL (       1 calls)
     wfcinit:atom :      0.01s CPU      0.01s WALL (      31 calls)
     wfcinit:wfcr :      0.33s CPU      0.33s WALL (      31 calls)
     potinit      :      0.17s CPU      0.18s WALL (       1 calls)
     hinit0       :      0.51s CPU      0.51s WALL (       1 calls)

     Called by electrons:
     c_bands      :     11.27s CPU     11.41s WALL (      10 calls)
     sum_band     :      3.25s CPU      3.73s WALL (      10 calls)
     v_of_rho     :      0.61s CPU      0.64s WALL (      10 calls)
     v_h          :      0.04s CPU      0.04s WALL (      10 calls)
     v_xc         :      0.71s CPU      0.74s WALL (      12 calls)
     newd         :      1.55s CPU      1.76s WALL (      10 calls)
     mix_rho      :      0.08s CPU      0.08s WALL (      10 calls)

     Called by c_bands:
     init_us_2    :      0.57s CPU      0.57s WALL (     713 calls)
     cegterg      :      9.47s CPU      9.55s WALL (     310 calls)

     Called by sum_band:
     sum_band:bec :      0.00s CPU      0.00s WALL (     310 calls)
     addusdens    :      1.50s CPU      1.98s WALL (      10 calls)

     Called by *egterg:
     h_psi        :      6.82s CPU      6.89s WALL (    1179 calls)
     s_psi        :      1.08s CPU      1.08s WALL (    1179 calls)
     g_psi        :      0.07s CPU      0.07s WALL (     838 calls)
     cdiaghg      :      0.14s CPU      0.14s WALL (    1117 calls)
     cegterg:over :      0.66s CPU      0.66s WALL (     838 calls)
     cegterg:upda :      0.45s CPU      0.45s WALL (     838 calls)
     cegterg:last :      0.24s CPU      0.24s WALL (     312 calls)

     Called by h_psi:
     h_psi:pot    :      6.78s CPU      6.85s WALL (    1179 calls)
     h_psi:calbec :      1.20s CPU      1.23s WALL (    1179 calls)
     vloc_psi     :      4.52s CPU      4.55s WALL (    1179 calls)
     add_vuspsi   :      1.06s CPU      1.07s WALL (    1179 calls)

     General routines
     calbec       :      1.80s CPU      1.84s WALL (    1644 calls)
     fft          :      0.45s CPU      0.46s WALL (     154 calls)
     ffts         :      0.01s CPU      0.01s WALL (      20 calls)
     fftw         :      4.36s CPU      4.39s WALL (   15620 calls)
     interpolate  :      0.04s CPU      0.04s WALL (      10 calls)

     Parallel routines

     PWSCF        :     21.43s CPU     22.45s WALL


   This run was terminated on:  23:41:38  22Sep2023            

=------------------------------------------------------------------------------=
   JOB DONE.
=------------------------------------------------------------------------------=
