### Running on host: LAPTOP-C0A2DPIS

     Program PWSCF v.6.4.1 starts on 22Sep2023 at 21:36:59 

     This program is part of the open-source Quantum ESPRESSO suite
     for quantum simulation of materials; please cite
         "P. Giannozzi et al., J. Phys.:Condens. Matter 21 395502 (2009);
         "P. Giannozzi et al., J. Phys.:Condens. Matter 29 465901 (2017);
          URL http://www.quantum-espresso.org", 
     in publications or presentations arising from this work. More details at
     http://www.quantum-espresso.org/quote

     Parallel version (MPI), running on     1 processors

     MPI processes distributed on     1 nodes
     Reading input from silicene_scf_kpoints-7.in

     Current dimensions of program PWSCF are:
     Max number of different atomic species (ntypx) = 10
     Max number of k-points (npk) =  40000
     Max angular momentum in pseudopotentials (lmaxx) =  3
     Message from routine read_upf::
     Pseudo file Si.pbe-n-rrkjus_psl.1.0.0.UPF has been fixed on the fly.
To avoid this message in the future, permanently fix 
 your pseudo files following these instructions: 
https://gitlab.com/QEF/q-e/blob/master/upftools/how_to_fix_upf.md

     Subspace diagonalization in iterative solution of the eigenvalue problem:
     a serial algorithm will be used

     Message from routine setup:
     DEPRECATED: symmetry with ibrav=0, use correct ibrav instead

     G-vector sticks info
     --------------------
     sticks:   dense  smooth     PW     G-vecs:    dense   smooth      PW
     Sum         859     433    139                64713    22975    4223



     bravais-lattice index     =            0
     lattice parameter (alat)  =       7.2375  a.u.
     unit-cell volume          =    1032.2806 (a.u.)^3
     number of atoms/cell      =            2
     number of atomic types    =            1
     number of electrons       =         8.00
     number of Kohn-Sham states=            8
     kinetic-energy cutoff     =      30.0000  Ry
     charge density cutoff     =     240.0000  Ry
     convergence threshold     =      4.0E-10
     mixing beta               =       0.4000
     number of iterations used =            8  plain     mixing
     Exchange-correlation      = PBE ( 1  4  3  4 0 0)

     celldm(1)=   7.237514  celldm(2)=   0.000000  celldm(3)=   0.000000
     celldm(4)=   0.000000  celldm(5)=   0.000000  celldm(6)=   0.000000

     crystal axes: (cart. coord. in units of alat)
               a(1) = (   0.502620  -0.864507   0.000000 )  
               a(2) = (   0.502620   0.864507   0.000000 )  
               a(3) = (   0.000000   0.000000   3.133218 )  

     reciprocal axes: (cart. coord. in units 2 pi/alat)
               b(1) = (  0.994786 -0.578364  0.000000 )  
               b(2) = (  0.994786  0.578364 -0.000000 )  
               b(3) = ( -0.000000  0.000000  0.319161 )  


     PseudoPot. # 1 for Si read from file:
     /home/meyn/q-e-qe-7.1/pseudo/Si.pbe-n-rrkjus_psl.1.0.0.UPF
     MD5 check sum: 56671f82560c68743c116fe4c72cdc4c
     Pseudo is Ultrasoft + core correction, Zval =  4.0
     Generated using "atomic" code by A. Dal Corso v.5.1.2
     Using radial grid of 1141 points,  6 beta functions with: 
                l(1) =   0
                l(2) =   0
                l(3) =   1
                l(4) =   1
                l(5) =   2
                l(6) =   2
     Q(r) pseudized with 0 coefficients 


     atomic species   valence    mass     pseudopotential
        Si             4.00    28.08550     Si( 1.00)

      4 Sym. Ops. (no inversion) found


                                    s                        frac. trans.

      isym =  1     identity                                     

 cryst.   s( 1) = (     1          0          0      )
                  (     0          1          0      )
                  (     0          0          1      )

 cart.    s( 1) = (  1.0000000  0.0000000  0.0000000 )
                  (  0.0000000  1.0000000  0.0000000 )
                  (  0.0000000  0.0000000  1.0000000 )


      isym =  2     180 deg rotation - cart. axis [0,1,0]        

 cryst.   s( 2) = (     0         -1          0      )
                  (    -1          0          0      )
                  (     0          0         -1      )

 cart.    s( 2) = ( -1.0000000  0.0000000  0.0000000 )
                  (  0.0000000  1.0000000  0.0000000 )
                  (  0.0000000  0.0000000 -1.0000000 )


      isym =  3     inv. 180 deg rotation - cart. axis [0,0,1]   

 cryst.   s( 3) = (     1          0          0      )
                  (     0          1          0      )
                  (     0          0         -1      )

 cart.    s( 3) = (  1.0000000  0.0000000  0.0000000 )
                  (  0.0000000  1.0000000  0.0000000 )
                  (  0.0000000  0.0000000 -1.0000000 )


      isym =  4     inv. 180 deg rotation - cart. axis [1,0,0]   

 cryst.   s( 4) = (     0         -1          0      )
                  (    -1          0          0      )
                  (     0          0          1      )

 cart.    s( 4) = ( -1.0000000  0.0000000  0.0000000 )
                  (  0.0000000  1.0000000  0.0000000 )
                  (  0.0000000  0.0000000  1.0000000 )


   Cartesian axes

     site n.     atom                  positions (alat units)
         1           Si  tau(   1) = (   0.0000000   0.0000000   0.0000000  )
         2           Si  tau(   2) = (   0.5026205   0.2939324   0.0000000  )

   Crystallographic axes

     site n.     atom                  positions (cryst. coord.)
         1           Si  tau(   1) = (  0.0000000  0.0000000  0.0000000  )
         2           Si  tau(   2) = (  0.3300000  0.6700000  0.0000000  )

     number of k points=    64  Marzari-Vanderbilt smearing, width (Ry)=  0.0147
                       cart. coord. in units 2pi/alat
        k(    1) = (   0.0000000   0.0000000   0.0000000), wk =   0.0058309
        k(    2) = (   0.0000000   0.0000000   0.0455944), wk =   0.0116618
        k(    3) = (   0.0000000   0.0000000   0.0911888), wk =   0.0116618
        k(    4) = (   0.0000000   0.0000000   0.1367831), wk =   0.0116618
        k(    5) = (   0.1421123   0.0826235   0.0000000), wk =   0.0233236
        k(    6) = (   0.1421123   0.0826235   0.0455944), wk =   0.0466472
        k(    7) = (   0.1421123   0.0826235   0.0911888), wk =   0.0466472
        k(    8) = (   0.1421123   0.0826235   0.1367831), wk =   0.0466472
        k(    9) = (   0.2842247   0.1652469   0.0000000), wk =   0.0233236
        k(   10) = (   0.2842247   0.1652469   0.0455944), wk =   0.0466472
        k(   11) = (   0.2842247   0.1652469   0.0911888), wk =   0.0466472
        k(   12) = (   0.2842247   0.1652469   0.1367831), wk =   0.0466472
        k(   13) = (   0.4263370   0.2478704   0.0000000), wk =   0.0233236
        k(   14) = (   0.4263370   0.2478704   0.0455944), wk =   0.0466472
        k(   15) = (   0.4263370   0.2478704   0.0911888), wk =   0.0466472
        k(   16) = (   0.4263370   0.2478704   0.1367831), wk =   0.0466472
        k(   17) = (   0.2842247   0.0000000   0.0000000), wk =   0.0116618
        k(   18) = (   0.2842247   0.0000000   0.0455944), wk =   0.0233236
        k(   19) = (   0.2842247   0.0000000   0.0911888), wk =   0.0233236
        k(   20) = (   0.2842247   0.0000000   0.1367831), wk =   0.0233236
        k(   21) = (   0.4263370   0.0826235   0.0000000), wk =   0.0233236
        k(   22) = (   0.4263370   0.0826235   0.0455944), wk =   0.0466472
        k(   23) = (   0.4263370   0.0826235   0.0911888), wk =   0.0466472
        k(   24) = (   0.4263370   0.0826235   0.1367831), wk =   0.0466472
        k(   25) = (   0.5684494   0.1652469   0.0000000), wk =   0.0233236
        k(   26) = (   0.5684494   0.1652469   0.0455944), wk =   0.0466472
        k(   27) = (   0.5684494   0.1652469   0.0911888), wk =   0.0466472
        k(   28) = (   0.5684494   0.1652469   0.1367831), wk =   0.0466472
        k(   29) = (  -0.2842247  -0.3304938   0.0000000), wk =   0.0233236
        k(   30) = (  -0.2842247  -0.3304938   0.0455944), wk =   0.0466472
        k(   31) = (  -0.2842247  -0.3304938   0.0911888), wk =   0.0466472
        k(   32) = (  -0.2842247  -0.3304938   0.1367831), wk =   0.0466472
        k(   33) = (  -0.1421123  -0.2478704   0.0000000), wk =   0.0233236
        k(   34) = (  -0.1421123  -0.2478704   0.0455944), wk =   0.0466472
        k(   35) = (  -0.1421123  -0.2478704   0.0911888), wk =   0.0466472
        k(   36) = (  -0.1421123  -0.2478704   0.1367831), wk =   0.0466472
        k(   37) = (  -0.0000000  -0.1652469   0.0000000), wk =   0.0116618
        k(   38) = (  -0.0000000  -0.1652469   0.0455944), wk =   0.0233236
        k(   39) = (  -0.0000000  -0.1652469   0.0911888), wk =   0.0233236
        k(   40) = (  -0.0000000  -0.1652469   0.1367831), wk =   0.0233236
        k(   41) = (   0.5684494   0.0000000   0.0000000), wk =   0.0116618
        k(   42) = (   0.5684494   0.0000000   0.0455944), wk =   0.0233236
        k(   43) = (   0.5684494   0.0000000   0.0911888), wk =   0.0233236
        k(   44) = (   0.5684494   0.0000000   0.1367831), wk =   0.0233236
        k(   45) = (   0.7105617   0.0826235   0.0000000), wk =   0.0233236
        k(   46) = (   0.7105617   0.0826235   0.0455944), wk =   0.0466472
        k(   47) = (   0.7105617   0.0826235   0.0911888), wk =   0.0466472
        k(   48) = (   0.7105617   0.0826235   0.1367831), wk =   0.0466472
        k(   49) = (  -0.1421123  -0.4131173   0.0000000), wk =   0.0233236
        k(   50) = (  -0.1421123  -0.4131173   0.0455944), wk =   0.0466472
        k(   51) = (  -0.1421123  -0.4131173   0.0911888), wk =   0.0466472
        k(   52) = (  -0.1421123  -0.4131173   0.1367831), wk =   0.0466472
        k(   53) = (   0.0000000  -0.3304938   0.0000000), wk =   0.0116618
        k(   54) = (   0.0000000  -0.3304938   0.0455944), wk =   0.0233236
        k(   55) = (   0.0000000  -0.3304938   0.0911888), wk =   0.0233236
        k(   56) = (   0.0000000  -0.3304938   0.1367831), wk =   0.0233236
        k(   57) = (   0.8526741   0.0000000   0.0000000), wk =   0.0116618
        k(   58) = (   0.8526741   0.0000000   0.0455944), wk =   0.0233236
        k(   59) = (   0.8526741   0.0000000   0.0911888), wk =   0.0233236
        k(   60) = (   0.8526741   0.0000000   0.1367831), wk =   0.0233236
        k(   61) = (  -0.0000000  -0.4957407   0.0000000), wk =   0.0116618
        k(   62) = (  -0.0000000  -0.4957407   0.0455944), wk =   0.0233236
        k(   63) = (  -0.0000000  -0.4957407   0.0911888), wk =   0.0233236
        k(   64) = (  -0.0000000  -0.4957407   0.1367831), wk =   0.0233236

                       cryst. coord.
        k(    1) = (   0.0000000   0.0000000   0.0000000), wk =   0.0058309
        k(    2) = (   0.0000000   0.0000000   0.1428571), wk =   0.0116618
        k(    3) = (   0.0000000   0.0000000   0.2857143), wk =   0.0116618
        k(    4) = (   0.0000000   0.0000000   0.4285714), wk =   0.0116618
        k(    5) = (   0.0000000   0.1428571   0.0000000), wk =   0.0233236
        k(    6) = (   0.0000000   0.1428571   0.1428571), wk =   0.0466472
        k(    7) = (   0.0000000   0.1428571   0.2857143), wk =   0.0466472
        k(    8) = (   0.0000000   0.1428571   0.4285714), wk =   0.0466472
        k(    9) = (   0.0000000   0.2857143   0.0000000), wk =   0.0233236
        k(   10) = (   0.0000000   0.2857143   0.1428571), wk =   0.0466472
        k(   11) = (   0.0000000   0.2857143   0.2857143), wk =   0.0466472
        k(   12) = (   0.0000000   0.2857143   0.4285714), wk =   0.0466472
        k(   13) = (   0.0000000   0.4285714   0.0000000), wk =   0.0233236
        k(   14) = (   0.0000000   0.4285714   0.1428571), wk =   0.0466472
        k(   15) = (   0.0000000   0.4285714   0.2857143), wk =   0.0466472
        k(   16) = (   0.0000000   0.4285714   0.4285714), wk =   0.0466472
        k(   17) = (   0.1428571   0.1428571   0.0000000), wk =   0.0116618
        k(   18) = (   0.1428571   0.1428571   0.1428571), wk =   0.0233236
        k(   19) = (   0.1428571   0.1428571   0.2857143), wk =   0.0233236
        k(   20) = (   0.1428571   0.1428571   0.4285714), wk =   0.0233236
        k(   21) = (   0.1428571   0.2857143   0.0000000), wk =   0.0233236
        k(   22) = (   0.1428571   0.2857143   0.1428571), wk =   0.0466472
        k(   23) = (   0.1428571   0.2857143   0.2857143), wk =   0.0466472
        k(   24) = (   0.1428571   0.2857143   0.4285714), wk =   0.0466472
        k(   25) = (   0.1428571   0.4285714   0.0000000), wk =   0.0233236
        k(   26) = (   0.1428571   0.4285714   0.1428571), wk =   0.0466472
        k(   27) = (   0.1428571   0.4285714   0.2857143), wk =   0.0466472
        k(   28) = (   0.1428571   0.4285714   0.4285714), wk =   0.0466472
        k(   29) = (   0.1428571  -0.4285714   0.0000000), wk =   0.0233236
        k(   30) = (   0.1428571  -0.4285714   0.1428571), wk =   0.0466472
        k(   31) = (   0.1428571  -0.4285714   0.2857143), wk =   0.0466472
        k(   32) = (   0.1428571  -0.4285714   0.4285714), wk =   0.0466472
        k(   33) = (   0.1428571  -0.2857143   0.0000000), wk =   0.0233236
        k(   34) = (   0.1428571  -0.2857143   0.1428571), wk =   0.0466472
        k(   35) = (   0.1428571  -0.2857143   0.2857143), wk =   0.0466472
        k(   36) = (   0.1428571  -0.2857143   0.4285714), wk =   0.0466472
        k(   37) = (   0.1428571  -0.1428571   0.0000000), wk =   0.0116618
        k(   38) = (   0.1428571  -0.1428571   0.1428571), wk =   0.0233236
        k(   39) = (   0.1428571  -0.1428571   0.2857143), wk =   0.0233236
        k(   40) = (   0.1428571  -0.1428571   0.4285714), wk =   0.0233236
        k(   41) = (   0.2857143   0.2857143   0.0000000), wk =   0.0116618
        k(   42) = (   0.2857143   0.2857143   0.1428571), wk =   0.0233236
        k(   43) = (   0.2857143   0.2857143   0.2857143), wk =   0.0233236
        k(   44) = (   0.2857143   0.2857143   0.4285714), wk =   0.0233236
        k(   45) = (   0.2857143   0.4285714   0.0000000), wk =   0.0233236
        k(   46) = (   0.2857143   0.4285714   0.1428571), wk =   0.0466472
        k(   47) = (   0.2857143   0.4285714   0.2857143), wk =   0.0466472
        k(   48) = (   0.2857143   0.4285714   0.4285714), wk =   0.0466472
        k(   49) = (   0.2857143  -0.4285714   0.0000000), wk =   0.0233236
        k(   50) = (   0.2857143  -0.4285714   0.1428571), wk =   0.0466472
        k(   51) = (   0.2857143  -0.4285714   0.2857143), wk =   0.0466472
        k(   52) = (   0.2857143  -0.4285714   0.4285714), wk =   0.0466472
        k(   53) = (   0.2857143  -0.2857143   0.0000000), wk =   0.0116618
        k(   54) = (   0.2857143  -0.2857143   0.1428571), wk =   0.0233236
        k(   55) = (   0.2857143  -0.2857143   0.2857143), wk =   0.0233236
        k(   56) = (   0.2857143  -0.2857143   0.4285714), wk =   0.0233236
        k(   57) = (   0.4285714   0.4285714   0.0000000), wk =   0.0116618
        k(   58) = (   0.4285714   0.4285714   0.1428571), wk =   0.0233236
        k(   59) = (   0.4285714   0.4285714   0.2857143), wk =   0.0233236
        k(   60) = (   0.4285714   0.4285714   0.4285714), wk =   0.0233236
        k(   61) = (   0.4285714  -0.4285714   0.0000000), wk =   0.0116618
        k(   62) = (   0.4285714  -0.4285714   0.1428571), wk =   0.0233236
        k(   63) = (   0.4285714  -0.4285714   0.2857143), wk =   0.0233236
        k(   64) = (   0.4285714  -0.4285714   0.4285714), wk =   0.0233236

     Dense  grid:    64713 G-vectors     FFT dimensions: (  36,  36, 120)

     Smooth grid:    22975 G-vectors     FFT dimensions: (  25,  25,  80)

     Dynamical RAM for                 wfc:       0.35 MB

     Dynamical RAM for     wfc (w. buffer):      22.72 MB

     Dynamical RAM for           str. fact:       0.99 MB

     Dynamical RAM for           local pot:       0.00 MB

     Dynamical RAM for          nlocal pot:       1.57 MB

     Dynamical RAM for                qrad:       1.43 MB

     Dynamical RAM for          rho,v,vnew:       6.52 MB

     Dynamical RAM for               rhoin:       2.17 MB

     Dynamical RAM for            rho*nmix:      15.80 MB

     Dynamical RAM for           G-vectors:       3.88 MB

     Dynamical RAM for          h,s,v(r/c):       0.05 MB

     Dynamical RAM for          <psi|beta>:       0.00 MB

     Dynamical RAM for                 psi:       1.40 MB

     Dynamical RAM for                hpsi:       1.40 MB

     Dynamical RAM for                spsi:       1.40 MB

     Dynamical RAM for      wfcinit/wfcrot:       0.70 MB

     Dynamical RAM for           addusdens:     185.64 MB

     Dynamical RAM for          addusforce:     188.12 MB

     Dynamical RAM for         addusstress:     198.48 MB

     Estimated static dynamical RAM per process >      63.00 MB

     Estimated max dynamical RAM per process >     261.47 MB

     Initial potential from superposition of free atoms

     starting charge    7.99888, renormalised to    8.00000

     negative rho (up, down):  3.014E-06 0.000E+00
     Starting wfcs are    8 randomized atomic wfcs

     total cpu time spent up to now is        2.4 secs

     Self-consistent Calculation

     iteration #  1     ecut=    30.00 Ry     beta= 0.40
     Davidson diagonalization with overlap
     ethr =  1.00E-02,  avg # of iterations =  4.6

     Threshold (ethr) on eigenvalues was too large:
     Diagonalizing with lowered threshold

     Davidson diagonalization with overlap
     ethr =  9.21E-04,  avg # of iterations =  2.0

     negative rho (up, down):  1.237E-06 0.000E+00

     total cpu time spent up to now is        8.9 secs

     total energy              =     -22.74129516 Ry
     Harris-Foulkes estimate   =     -22.76124435 Ry
     estimated scf accuracy    <       0.07269741 Ry

     iteration #  2     ecut=    30.00 Ry     beta= 0.40
     Davidson diagonalization with overlap
     ethr =  9.09E-04,  avg # of iterations =  1.2

     negative rho (up, down):  2.880E-06 0.000E+00

     total cpu time spent up to now is       11.7 secs

     total energy              =     -22.73793079 Ry
     Harris-Foulkes estimate   =     -22.74362671 Ry
     estimated scf accuracy    <       0.01725333 Ry

     iteration #  3     ecut=    30.00 Ry     beta= 0.40
     Davidson diagonalization with overlap
     ethr =  2.16E-04,  avg # of iterations =  4.4

     negative rho (up, down):  1.641E-06 0.000E+00

     total cpu time spent up to now is       14.9 secs

     total energy              =     -22.73974549 Ry
     Harris-Foulkes estimate   =     -22.73993477 Ry
     estimated scf accuracy    <       0.00061914 Ry

     iteration #  4     ecut=    30.00 Ry     beta= 0.40
     Davidson diagonalization with overlap
     ethr =  7.74E-06,  avg # of iterations =  4.1

     negative rho (up, down):  1.086E-06 0.000E+00

     total cpu time spent up to now is       18.6 secs

     total energy              =     -22.73983224 Ry
     Harris-Foulkes estimate   =     -22.73991901 Ry
     estimated scf accuracy    <       0.00014429 Ry

     iteration #  5     ecut=    30.00 Ry     beta= 0.40
     Davidson diagonalization with overlap
     ethr =  1.80E-06,  avg # of iterations =  2.1

     negative rho (up, down):  8.048E-07 0.000E+00

     total cpu time spent up to now is       21.6 secs

     total energy              =     -22.73985979 Ry
     Harris-Foulkes estimate   =     -22.73986000 Ry
     estimated scf accuracy    <       0.00000178 Ry

     iteration #  6     ecut=    30.00 Ry     beta= 0.40
     Davidson diagonalization with overlap
     ethr =  2.23E-08,  avg # of iterations =  2.3

     negative rho (up, down):  7.193E-07 0.000E+00

     total cpu time spent up to now is       24.6 secs

     total energy              =     -22.73986024 Ry
     Harris-Foulkes estimate   =     -22.73986021 Ry
     estimated scf accuracy    <       0.00000013 Ry

     iteration #  7     ecut=    30.00 Ry     beta= 0.40
     Davidson diagonalization with overlap
     ethr =  1.64E-09,  avg # of iterations =  1.4

     negative rho (up, down):  6.913E-07 0.000E+00

     total cpu time spent up to now is       27.4 secs

     total energy              =     -22.73986022 Ry
     Harris-Foulkes estimate   =     -22.73986025 Ry
     estimated scf accuracy    <       0.00000007 Ry

     iteration #  8     ecut=    30.00 Ry     beta= 0.40
     Davidson diagonalization with overlap
     ethr =  9.19E-10,  avg # of iterations =  2.0

     negative rho (up, down):  6.851E-07 0.000E+00

     total cpu time spent up to now is       30.2 secs

     total energy              =     -22.73986023 Ry
     Harris-Foulkes estimate   =     -22.73986023 Ry
     estimated scf accuracy    <          4.1E-09 Ry

     iteration #  9     ecut=    30.00 Ry     beta= 0.40
     Davidson diagonalization with overlap
     ethr =  5.07E-11,  avg # of iterations =  2.2

     negative rho (up, down):  6.933E-07 0.000E+00

     total cpu time spent up to now is       33.1 secs

     End of self-consistent calculation

          k = 0.0000 0.0000 0.0000 (  2867 PWs)   bands (ev):

   -13.2209  -4.8626  -3.4902  -3.3408   0.1612   0.8470   1.1144   1.3574

     occupation numbers 
     1.0000   1.0000   1.0000   1.0000   0.0000   0.0000   0.0000   0.0000

          k = 0.0000 0.0000 0.0456 (  2873 PWs)   bands (ev):

   -13.2209  -4.8626  -3.4902  -3.3408   0.1612   0.8470   1.1144   1.3739

     occupation numbers 
     1.0000   1.0000   1.0000   1.0000   0.0000   0.0000   0.0000   0.0000

          k = 0.0000 0.0000 0.0912 (  2892 PWs)   bands (ev):

   -13.2209  -4.8626  -3.4902  -3.3408   0.1612   0.8470   1.1144   1.4149

     occupation numbers 
     1.0000   1.0000   1.0000   1.0000   0.0000   0.0000   0.0000   0.0000

          k = 0.0000 0.0000 0.1368 (  2866 PWs)   bands (ev):

   -13.2209  -4.8627  -3.4902  -3.3408   0.1612   0.8470   1.1144   1.4531

     occupation numbers 
     1.0000   1.0000   1.0000   1.0000   0.0000   0.0000   0.0000   0.0000

          k = 0.1421 0.0826 0.0000 (  2880 PWs)   bands (ev):

   -12.9811  -4.8252  -4.6287  -3.8043   0.3029   1.6247   1.8733   1.8872

     occupation numbers 
     1.0000   1.0000   1.0000   1.0000   0.0000   0.0000   0.0000   0.0000

          k = 0.1421 0.0826 0.0456 (  2881 PWs)   bands (ev):

   -12.9811  -4.8252  -4.6287  -3.8043   0.3029   1.6409   1.8734   1.8873

     occupation numbers 
     1.0000   1.0000   1.0000   1.0000   0.0000   0.0000   0.0000   0.0000

          k = 0.1421 0.0826 0.0912 (  2873 PWs)   bands (ev):

   -12.9811  -4.8252  -4.6287  -3.8043   0.3029   1.6810   1.8738   1.8873

     occupation numbers 
     1.0000   1.0000   1.0000   1.0000   0.0000   0.0000   0.0000   0.0000

          k = 0.1421 0.0826 0.1368 (  2874 PWs)   bands (ev):

   -12.9811  -4.8252  -4.6287  -3.8043   0.3029   1.7181   1.8742   1.8873

     occupation numbers 
     1.0000   1.0000   1.0000   1.0000   0.0000   0.0000   0.0000   0.0000

          k = 0.2842 0.1652 0.0000 (  2870 PWs)   bands (ev):

   -12.2820  -7.0162  -4.3902  -3.9463  -0.4171   1.2490   2.4214   3.8994

     occupation numbers 
     1.0000   1.0000   1.0000   1.0000   0.0000   0.0000   0.0000   0.0000

          k = 0.2842 0.1652 0.0456 (  2863 PWs)   bands (ev):

   -12.2820  -7.0162  -4.3902  -3.9464  -0.4171   1.2490   2.4369   3.8992

     occupation numbers 
     1.0000   1.0000   1.0000   1.0000   0.0000   0.0000   0.0000   0.0000

          k = 0.2842 0.1652 0.0912 (  2864 PWs)   bands (ev):

   -12.2820  -7.0162  -4.3902  -3.9464  -0.4171   1.2489   2.4750   3.8990

     occupation numbers 
     1.0000   1.0000   1.0000   1.0000   0.0000   0.0000   0.0000   0.0000

          k = 0.2842 0.1652 0.1368 (  2869 PWs)   bands (ev):

   -12.2820  -7.0162  -4.3902  -3.9464  -0.4171   1.2488   2.5101   3.8992

     occupation numbers 
     1.0000   1.0000   1.0000   1.0000   0.0000   0.0000   0.0000   0.0000

          k = 0.4263 0.2479 0.0000 (  2873 PWs)   bands (ev):

   -11.2757  -8.8425  -4.7477  -2.9669  -0.8675  -0.5390   3.6916   5.2940

     occupation numbers 
     1.0000   1.0000   1.0000   1.0000   0.0000   0.0000   0.0000   0.0000

          k = 0.4263 0.2479 0.0456 (  2870 PWs)   bands (ev):

   -11.2757  -8.8425  -4.7477  -2.9669  -0.8675  -0.5390   3.7043   5.1715

     occupation numbers 
     1.0000   1.0000   1.0000   1.0000   0.0000   0.0000   0.0000   0.0000

          k = 0.4263 0.2479 0.0912 (  2866 PWs)   bands (ev):

   -11.2757  -8.8425  -4.7477  -2.9670  -0.8675  -0.5391   3.7353   4.9900

     occupation numbers 
     1.0000   1.0000   1.0000   1.0000   0.0000   0.0000   0.0000   0.0000

          k = 0.4263 0.2479 0.1368 (  2867 PWs)   bands (ev):

   -11.2757  -8.8425  -4.7477  -2.9670  -0.8675  -0.5391   3.7630   4.8734

     occupation numbers 
     1.0000   1.0000   1.0000   1.0000   0.0000   0.0000   0.0000   0.0000

          k = 0.2842 0.0000 0.0000 (  2871 PWs)   bands (ev):

   -12.5147  -6.2490  -4.6761  -4.1731   1.0319   1.5084   1.9376   2.1557

     occupation numbers 
     1.0000   1.0000   1.0000   1.0000   0.0000   0.0000   0.0000   0.0000

          k = 0.2842 0.0000 0.0456 (  2863 PWs)   bands (ev):

   -12.5147  -6.2490  -4.6761  -4.1731   1.0319   1.5084   1.9376   2.1714

     occupation numbers 
     1.0000   1.0000   1.0000   1.0000   0.0000   0.0000   0.0000   0.0000

          k = 0.2842 0.0000 0.0912 (  2876 PWs)   bands (ev):

   -12.5147  -6.2490  -4.6761  -4.1731   1.0319   1.5084   1.9376   2.2105

     occupation numbers 
     1.0000   1.0000   1.0000   1.0000   0.0000   0.0000   0.0000   0.0000

          k = 0.2842 0.0000 0.1368 (  2879 PWs)   bands (ev):

   -12.5147  -6.2490  -4.6761  -4.1731   1.0319   1.5084   1.9376   2.2467

     occupation numbers 
     1.0000   1.0000   1.0000   1.0000   0.0000   0.0000   0.0000   0.0000

          k = 0.4263 0.0826 0.0000 (  2856 PWs)   bands (ev):

   -11.6282  -8.0501  -5.4376  -3.3080   0.1895   0.6569   3.1889   3.5767

     occupation numbers 
     1.0000   1.0000   1.0000   1.0000   0.0000   0.0000   0.0000   0.0000

          k = 0.4263 0.0826 0.0456 (  2856 PWs)   bands (ev):

   -11.6282  -8.0501  -5.4376  -3.3080   0.1895   0.6569   3.2026   3.5773

     occupation numbers 
     1.0000   1.0000   1.0000   1.0000   0.0000   0.0000   0.0000   0.0000

          k = 0.4263 0.0826 0.0912 (  2864 PWs)   bands (ev):

   -11.6282  -8.0501  -5.4376  -3.3080   0.1894   0.6569   3.2362   3.5788

     occupation numbers 
     1.0000   1.0000   1.0000   1.0000   0.0000   0.0000   0.0000   0.0000

          k = 0.4263 0.0826 0.1368 (  2867 PWs)   bands (ev):

   -11.6282  -8.0501  -5.4376  -3.3080   0.1894   0.6569   3.2667   3.5807

     occupation numbers 
     1.0000   1.0000   1.0000   1.0000   0.0000   0.0000   0.0000   0.0000

          k = 0.5684 0.1652 0.0000 (  2874 PWs)   bands (ev):

   -10.8002  -9.2481  -5.6714  -2.5076  -0.9597   0.4450   3.5728   4.3710

     occupation numbers 
     1.0000   1.0000   1.0000   1.0561   0.0000   0.0000   0.0000   0.0000

          k = 0.5684 0.1652 0.0456 (  2856 PWs)   bands (ev):

   -10.8002  -9.2481  -5.6714  -2.5076  -0.9597   0.4450   3.5723   4.3782

     occupation numbers 
     1.0000   1.0000   1.0000   1.0561   0.0000   0.0000   0.0000   0.0000

          k = 0.5684 0.1652 0.0912 (  2850 PWs)   bands (ev):

   -10.8002  -9.2481  -5.6714  -2.5076  -0.9598   0.4450   3.5712   4.3947

     occupation numbers 
     1.0000   1.0000   1.0000   1.0561   0.0000   0.0000   0.0000   0.0000

          k = 0.5684 0.1652 0.1368 (  2858 PWs)   bands (ev):

   -10.8002  -9.2481  -5.6714  -2.5076  -0.9598   0.4450   3.5702   4.4087

     occupation numbers 
     1.0000   1.0000   1.0000   1.0561   0.0000   0.0000   0.0000   0.0000

          k =-0.2842-0.3305 0.0000 (  2853 PWs)   bands (ev):

   -11.6027  -8.1185  -5.3794  -3.2856   0.1376   0.6408   3.2043   3.4813

     occupation numbers 
     1.0000   1.0000   1.0000   1.0000   0.0000   0.0000   0.0000   0.0000

          k =-0.2842-0.3305 0.0456 (  2866 PWs)   bands (ev):

   -11.6027  -8.1185  -5.3794  -3.2856   0.1375   0.6408   3.2181   3.4817

     occupation numbers 
     1.0000   1.0000   1.0000   1.0000   0.0000   0.0000   0.0000   0.0000

          k =-0.2842-0.3305 0.0912 (  2867 PWs)   bands (ev):

   -11.6027  -8.1185  -5.3793  -3.2857   0.1375   0.6408   3.2516   3.4833

     occupation numbers 
     1.0000   1.0000   1.0000   1.0000   0.0000   0.0000   0.0000   0.0000

          k =-0.2842-0.3305 0.1368 (  2867 PWs)   bands (ev):

   -11.6027  -8.1185  -5.3793  -3.2857   0.1375   0.6408   3.2818   3.4852

     occupation numbers 
     1.0000   1.0000   1.0000   1.0000   0.0000   0.0000   0.0000   0.0000

          k =-0.1421-0.2479 0.0000 (  2877 PWs)   bands (ev):

   -12.4990  -6.3483  -4.5680  -4.1592   1.1374   1.3017   1.8807   2.1638

     occupation numbers 
     1.0000   1.0000   1.0000   1.0000   0.0000   0.0000   0.0000   0.0000

          k =-0.1421-0.2479 0.0456 (  2866 PWs)   bands (ev):

   -12.4990  -6.3483  -4.5680  -4.1592   1.1374   1.3017   1.8807   2.1796

     occupation numbers 
     1.0000   1.0000   1.0000   1.0000   0.0000   0.0000   0.0000   0.0000

          k =-0.1421-0.2479 0.0912 (  2868 PWs)   bands (ev):

   -12.4990  -6.3483  -4.5680  -4.1592   1.1374   1.3017   1.8807   2.2186

     occupation numbers 
     1.0000   1.0000   1.0000   1.0000   0.0000   0.0000   0.0000   0.0000

          k =-0.1421-0.2479 0.1368 (  2874 PWs)   bands (ev):

   -12.4990  -6.3483  -4.5680  -4.1593   1.1375   1.3017   1.8807   2.2547

     occupation numbers 
     1.0000   1.0000   1.0000   1.0000   0.0000   0.0000   0.0000   0.0000

          k =-0.0000-0.1652 0.0000 (  2879 PWs)   bands (ev):

   -12.9759  -4.8895  -4.6241  -3.7348   0.3275   1.6281   1.7273   1.9566

     occupation numbers 
     1.0000   1.0000   1.0000   1.0000   0.0000   0.0000   0.0000   0.0000

          k =-0.0000-0.1652 0.0456 (  2878 PWs)   bands (ev):

   -12.9759  -4.8895  -4.6241  -3.7348   0.3275   1.6443   1.7273   1.9566

     occupation numbers 
     1.0000   1.0000   1.0000   1.0000   0.0000   0.0000   0.0000   0.0000

          k =-0.0000-0.1652 0.0912 (  2870 PWs)   bands (ev):

   -12.9759  -4.8895  -4.6241  -3.7348   0.3275   1.6847   1.7274   1.9566

     occupation numbers 
     1.0000   1.0000   1.0000   1.0000   0.0000   0.0000   0.0000   0.0000

          k =-0.0000-0.1652 0.1368 (  2861 PWs)   bands (ev):

   -12.9759  -4.8895  -4.6241  -3.7348   0.3275   1.7223   1.7274   1.9566

     occupation numbers 
     1.0000   1.0000   1.0000   1.0000   0.0000   0.0000   0.0000   0.0000

          k = 0.5684 0.0000 0.0000 (  2852 PWs)   bands (ev):

   -10.6373  -9.1492  -6.4501  -2.3435  -0.9207   2.6732   2.7947   3.4919

     occupation numbers 
     1.0000   1.0000   1.0000   1.0323   0.0000   0.0000   0.0000   0.0000

          k = 0.5684 0.0000 0.0456 (  2851 PWs)   bands (ev):

   -10.6373  -9.1492  -6.4501  -2.3435  -0.9207   2.6729   2.7947   3.4919

     occupation numbers 
     1.0000   1.0000   1.0000   1.0323   0.0000   0.0000   0.0000   0.0000

          k = 0.5684 0.0000 0.0912 (  2839 PWs)   bands (ev):

   -10.6373  -9.1492  -6.4501  -2.3435  -0.9207   2.6724   2.7947   3.4920

     occupation numbers 
     1.0000   1.0000   1.0000   1.0323   0.0000   0.0000   0.0000   0.0000

          k = 0.5684 0.0000 0.1368 (  2840 PWs)   bands (ev):

   -10.6373  -9.1492  -6.4501  -2.3435  -0.9207   2.6719   2.7947   3.4921

     occupation numbers 
     1.0000   1.0000   1.0000   1.0323   0.0000   0.0000   0.0000   0.0000

          k = 0.7106 0.0826 0.0000 (  2849 PWs)   bands (ev):

   -10.5589  -9.2643  -6.4113  -2.2774  -1.0097   2.7012   2.8763   3.3043

     occupation numbers 
     1.0000   1.0000   1.0000   0.8881   0.0000   0.0000   0.0000   0.0000

          k = 0.7106 0.0826 0.0456 (  2855 PWs)   bands (ev):

   -10.5589  -9.2643  -6.4113  -2.2775  -1.0097   2.7009   2.8763   3.3044

     occupation numbers 
     1.0000   1.0000   1.0000   0.8881   0.0000   0.0000   0.0000   0.0000

          k = 0.7106 0.0826 0.0912 (  2845 PWs)   bands (ev):

   -10.5589  -9.2643  -6.4113  -2.2775  -1.0097   2.7004   2.8764   3.3044

     occupation numbers 
     1.0000   1.0000   1.0000   0.8882   0.0000   0.0000   0.0000   0.0000

          k = 0.7106 0.0826 0.1368 (  2840 PWs)   bands (ev):

   -10.5589  -9.2643  -6.4113  -2.2775  -1.0097   2.7000   2.8764   3.3045

     occupation numbers 
     1.0000   1.0000   1.0000   0.8882   0.0000   0.0000   0.0000   0.0000

          k =-0.1421-0.4131 0.0000 (  2856 PWs)   bands (ev):

   -11.5758  -8.1625  -5.3733  -3.2627   0.1082   0.6318   3.2178   3.4862

     occupation numbers 
     1.0000   1.0000   1.0000   1.0000   0.0000   0.0000   0.0000   0.0000

          k =-0.1421-0.4131 0.0456 (  2861 PWs)   bands (ev):

   -11.5758  -8.1625  -5.3733  -3.2627   0.1082   0.6319   3.2319   3.4863

     occupation numbers 
     1.0000   1.0000   1.0000   1.0000   0.0000   0.0000   0.0000   0.0000

          k =-0.1421-0.4131 0.0912 (  2868 PWs)   bands (ev):

   -11.5758  -8.1625  -5.3733  -3.2627   0.1081   0.6319   3.2664   3.4867

     occupation numbers 
     1.0000   1.0000   1.0000   1.0000   0.0000   0.0000   0.0000   0.0000

          k =-0.1421-0.4131 0.1368 (  2869 PWs)   bands (ev):

   -11.5758  -8.1625  -5.3733  -3.2627   0.1081   0.6319   3.2980   3.4872

     occupation numbers 
     1.0000   1.0000   1.0000   1.0000   0.0000   0.0000   0.0000   0.0000

          k = 0.0000-0.3305 0.0000 (  2865 PWs)   bands (ev):

   -12.2573  -7.0774  -4.3618  -3.9248  -0.4124   1.2117   2.4341   3.8084

     occupation numbers 
     1.0000   1.0000   1.0000   1.0000   0.0000   0.0000   0.0000   0.0000

          k = 0.0000-0.3305 0.0456 (  2870 PWs)   bands (ev):

   -12.2573  -7.0774  -4.3618  -3.9248  -0.4124   1.2117   2.4495   3.8084

     occupation numbers 
     1.0000   1.0000   1.0000   1.0000   0.0000   0.0000   0.0000   0.0000

          k = 0.0000-0.3305 0.0912 (  2878 PWs)   bands (ev):

   -12.2573  -7.0774  -4.3618  -3.9248  -0.4124   1.2116   2.4878   3.8084

     occupation numbers 
     1.0000   1.0000   1.0000   1.0000   0.0000   0.0000   0.0000   0.0000

          k = 0.0000-0.3305 0.1368 (  2873 PWs)   bands (ev):

   -12.2573  -7.0774  -4.3618  -3.9249  -0.4124   1.2115   2.5230   3.8084

     occupation numbers 
     1.0000   1.0000   1.0000   1.0000   0.0000   0.0000   0.0000   0.0000

          k = 0.8527 0.0000 0.0000 (  2868 PWs)   bands (ev):

   -10.6643  -9.4188  -5.6468  -2.3981  -1.0889   0.4158   3.5794   4.4432

     occupation numbers 
     1.0000   1.0000   1.0000   1.0793   0.0000   0.0000   0.0000   0.0000

          k = 0.8527 0.0000 0.0456 (  2866 PWs)   bands (ev):

   -10.6643  -9.4188  -5.6468  -2.3981  -1.0889   0.4158   3.5789   4.4507

     occupation numbers 
     1.0000   1.0000   1.0000   1.0793   0.0000   0.0000   0.0000   0.0000

          k = 0.8527 0.0000 0.0912 (  2853 PWs)   bands (ev):

   -10.6643  -9.4188  -5.6468  -2.3981  -1.0889   0.4158   3.5778   4.4683

     occupation numbers 
     1.0000   1.0000   1.0000   1.0793   0.0000   0.0000   0.0000   0.0000

          k = 0.8527 0.0000 0.1368 (  2860 PWs)   bands (ev):

   -10.6643  -9.4188  -5.6468  -2.3982  -1.0889   0.4158   3.5769   4.4831

     occupation numbers 
     1.0000   1.0000   1.0000   1.0793   0.0000   0.0000   0.0000   0.0000

          k =-0.0000-0.4957 0.0000 (  2873 PWs)   bands (ev):

   -11.1873  -8.9609  -4.7383  -2.8930  -0.8812  -0.6283   3.7250   5.3118

     occupation numbers 
     1.0000   1.0000   1.0000   1.0000   0.0000   0.0000   0.0000   0.0000

          k =-0.0000-0.4957 0.0456 (  2877 PWs)   bands (ev):

   -11.1873  -8.9609  -4.7383  -2.8930  -0.8813  -0.6283   3.7380   5.1941

     occupation numbers 
     1.0000   1.0000   1.0000   1.0000   0.0000   0.0000   0.0000   0.0000

          k =-0.0000-0.4957 0.0912 (  2866 PWs)   bands (ev):

   -11.1873  -8.9609  -4.7383  -2.8930  -0.8813  -0.6283   3.7695   5.0107

     occupation numbers 
     1.0000   1.0000   1.0000   1.0000   0.0000   0.0000   0.0000   0.0000

          k =-0.0000-0.4957 0.1368 (  2872 PWs)   bands (ev):

   -11.1873  -8.9609  -4.7383  -2.8930  -0.8813  -0.6284   3.7977   4.8932

     occupation numbers 
     1.0000   1.0000   1.0000   1.0000   0.0000   0.0000   0.0000   0.0000

     the Fermi energy is    -2.1398 ev

!    total energy              =     -22.73986023 Ry
     Harris-Foulkes estimate   =     -22.73986023 Ry
     estimated scf accuracy    <          2.1E-10 Ry

     The total energy is the sum of the following terms:

     one-electron contribution =     -39.49767938 Ry
     hartree contribution      =      20.98764545 Ry
     xc contribution           =     -12.21503234 Ry
     ewald contribution        =       7.98458886 Ry
     smearing contrib. (-TS)   =       0.00061718 Ry

     convergence has been achieved in   9 iterations

     negative rho (up, down):  6.933E-07 0.000E+00

     Forces acting on atoms (cartesian axes, Ry/au):

     atom    1 type  1   force =     0.00000000    0.02203200    0.00000000
     atom    2 type  1   force =     0.00000000   -0.02203200    0.00000000
     The non-local contrib.  to forces
     atom    1 type  1   force =     0.00000000    0.02354852    0.00000000
     atom    2 type  1   force =     0.00000000   -0.02359123    0.00000000
     The ionic contribution  to forces
     atom    1 type  1   force =    -0.00000000    0.06637603   -0.00000000
     atom    2 type  1   force =     0.00000000   -0.06637603   -0.00000000
     The local contribution  to forces
     atom    1 type  1   force =     0.00000000   -0.06513283    0.00000000
     atom    2 type  1   force =     0.00000000    0.06513956    0.00000000
     The core correction contribution to forces
     atom    1 type  1   force =     0.00000000   -0.00277095    0.00000000
     atom    2 type  1   force =    -0.00000000    0.00278342    0.00000000
     The Hubbard contrib.    to forces
     atom    1 type  1   force =     0.00000000    0.00000000    0.00000000
     atom    2 type  1   force =     0.00000000    0.00000000    0.00000000
     The SCF correction term to forces
     atom    1 type  1   force =    -0.00000000   -0.00000054   -0.00000000
     atom    2 type  1   force =     0.00000000    0.00000050   -0.00000000

     Total force =     0.031158     Total SCF correction =     0.000001


     Computing stress (Cartesian axis) and pressure


     negative rho (up, down):  6.933E-07 0.000E+00
          total   stress  (Ry/bohr**3)                   (kbar)     P=   12.36
   0.00008712   0.00000000   0.00000000         12.82      0.00      0.00
   0.00000000   0.00016544   0.00000000          0.00     24.34      0.00
   0.00000000   0.00000000  -0.00000050          0.00      0.00     -0.07

     kinetic stress (kbar)    527.81      0.00      0.00
                                0.00    525.50      0.00
                                0.00      0.00    656.11

     local   stress (kbar)  -6541.72     -0.00     -0.00
                               -0.00  -6588.69      0.00
                               -0.00      0.00   6824.27

     nonloc. stress (kbar)    447.63      0.00      0.00
                                0.00    454.54      0.00
                               -0.00      0.00    378.84

     hartree stress (kbar)   2913.58      0.00     -0.00
                                0.00   2919.91     -0.00
                               -0.00     -0.00  -2842.65

     exc-cor stress (kbar)    778.04      0.00     -0.00
                                0.00    778.39     -0.00
                               -0.00     -0.00    768.93

     corecor stress (kbar)  -1036.27     -0.00     -0.00
                               -0.00  -1037.18     -0.00
                               -0.00     -0.00  -1027.83

     ewald   stress (kbar)   2923.73      0.00     -0.00
                                0.00   2971.85     -0.00
                               -0.00     -0.00  -4757.74

     hubbard stress (kbar)      0.00      0.00      0.00
                                0.00      0.00      0.00
                                0.00      0.00      0.00

     london  stress (kbar)      0.00      0.00      0.00
                                0.00      0.00      0.00
                                0.00      0.00      0.00

     DFT-D3  stress (kbar)      0.00      0.00      0.00
                                0.00      0.00      0.00
                                0.00      0.00      0.00

     XDM     stress (kbar)      0.00      0.00      0.00
                                0.00      0.00      0.00
                                0.00      0.00      0.00

     dft-nl  stress (kbar)      0.00      0.00      0.00
                                0.00      0.00      0.00
                                0.00      0.00      0.00

     TS-vdW  stress (kbar)      0.00      0.00      0.00
                                0.00      0.00      0.00
                                0.00      0.00      0.00



     Writing output data file silicene.save/

     init_run     :      1.78s CPU      1.83s WALL (       1 calls)
     electrons    :     29.89s CPU     30.77s WALL (       1 calls)
     forces       :      0.95s CPU      0.98s WALL (       1 calls)
     stress       :      2.83s CPU      2.98s WALL (       1 calls)

     Called by init_run:
     wfcinit      :      0.79s CPU      0.79s WALL (       1 calls)
     wfcinit:atom :      0.02s CPU      0.02s WALL (      64 calls)
     wfcinit:wfcr :      0.64s CPU      0.64s WALL (      64 calls)
     potinit      :      0.25s CPU      0.25s WALL (       1 calls)
     hinit0       :      0.53s CPU      0.53s WALL (       1 calls)

     Called by electrons:
     c_bands      :     22.30s CPU     22.51s WALL (      10 calls)
     sum_band     :      5.38s CPU      5.94s WALL (      10 calls)
     v_of_rho     :      0.67s CPU      0.67s WALL (      10 calls)
     v_h          :      0.04s CPU      0.04s WALL (      10 calls)
     v_xc         :      0.73s CPU      0.74s WALL (      12 calls)
     newd         :      1.70s CPU      1.84s WALL (      10 calls)
     mix_rho      :      0.08s CPU      0.08s WALL (      10 calls)

     Called by c_bands:
     init_us_2    :      1.16s CPU      1.16s WALL (    1472 calls)
     cegterg      :     18.63s CPU     18.81s WALL (     640 calls)

     Called by sum_band:
     sum_band:bec :      0.01s CPU      0.01s WALL (     640 calls)
     addusdens    :      1.91s CPU      2.41s WALL (      10 calls)

     Called by *egterg:
     h_psi        :     13.47s CPU     13.57s WALL (    2387 calls)
     s_psi        :      2.09s CPU      2.13s WALL (    2387 calls)
     g_psi        :      0.14s CPU      0.14s WALL (    1683 calls)
     cdiaghg      :      0.27s CPU      0.27s WALL (    2259 calls)
     cegterg:over :      1.28s CPU      1.29s WALL (    1683 calls)
     cegterg:upda :      0.86s CPU      0.88s WALL (    1683 calls)
     cegterg:last :      0.48s CPU      0.48s WALL (     648 calls)

     Called by h_psi:
     h_psi:pot    :     13.39s CPU     13.47s WALL (    2387 calls)
     h_psi:calbec :      2.33s CPU      2.34s WALL (    2387 calls)
     vloc_psi     :      8.96s CPU      8.99s WALL (    2387 calls)
     add_vuspsi   :      2.09s CPU      2.13s WALL (    2387 calls)

     General routines
     calbec       :      3.60s CPU      3.64s WALL (    3347 calls)
     fft          :      0.46s CPU      0.46s WALL (     154 calls)
     ffts         :      0.01s CPU      0.01s WALL (      20 calls)
     fftw         :      8.63s CPU      8.69s WALL (   31838 calls)
     interpolate  :      0.04s CPU      0.04s WALL (      10 calls)

     Parallel routines

     PWSCF        :     36.00s CPU     37.14s WALL


   This run was terminated on:  21:37:36  22Sep2023            

=------------------------------------------------------------------------------=
   JOB DONE.
=------------------------------------------------------------------------------=
