### Running on host: LAPTOP-C0A2DPIS

     Program PWSCF v.6.4.1 starts on 22Sep2023 at 21:45: 9 

     This program is part of the open-source Quantum ESPRESSO suite
     for quantum simulation of materials; please cite
         "P. Giannozzi et al., J. Phys.:Condens. Matter 21 395502 (2009);
         "P. Giannozzi et al., J. Phys.:Condens. Matter 29 465901 (2017);
          URL http://www.quantum-espresso.org", 
     in publications or presentations arising from this work. More details at
     http://www.quantum-espresso.org/quote

     Parallel version (MPI), running on     1 processors

     MPI processes distributed on     1 nodes
     Reading input from silicene_scf_kpoints-8.in

     Current dimensions of program PWSCF are:
     Max number of different atomic species (ntypx) = 10
     Max number of k-points (npk) =  40000
     Max angular momentum in pseudopotentials (lmaxx) =  3
     Message from routine read_upf::
     Pseudo file Si.pbe-n-rrkjus_psl.1.0.0.UPF has been fixed on the fly.
To avoid this message in the future, permanently fix 
 your pseudo files following these instructions: 
https://gitlab.com/QEF/q-e/blob/master/upftools/how_to_fix_upf.md

     Subspace diagonalization in iterative solution of the eigenvalue problem:
     a serial algorithm will be used

     Message from routine setup:
     DEPRECATED: symmetry with ibrav=0, use correct ibrav instead

     G-vector sticks info
     --------------------
     sticks:   dense  smooth     PW     G-vecs:    dense   smooth      PW
     Sum         859     433    151                64713    22975    4467



     bravais-lattice index     =            0
     lattice parameter (alat)  =       7.2375  a.u.
     unit-cell volume          =    1032.2806 (a.u.)^3
     number of atoms/cell      =            2
     number of atomic types    =            1
     number of electrons       =         8.00
     number of Kohn-Sham states=            8
     kinetic-energy cutoff     =      30.0000  Ry
     charge density cutoff     =     240.0000  Ry
     convergence threshold     =      4.0E-10
     mixing beta               =       0.4000
     number of iterations used =            8  plain     mixing
     Exchange-correlation      = PBE ( 1  4  3  4 0 0)

     celldm(1)=   7.237514  celldm(2)=   0.000000  celldm(3)=   0.000000
     celldm(4)=   0.000000  celldm(5)=   0.000000  celldm(6)=   0.000000

     crystal axes: (cart. coord. in units of alat)
               a(1) = (   0.502620  -0.864507   0.000000 )  
               a(2) = (   0.502620   0.864507   0.000000 )  
               a(3) = (   0.000000   0.000000   3.133218 )  

     reciprocal axes: (cart. coord. in units 2 pi/alat)
               b(1) = (  0.994786 -0.578364  0.000000 )  
               b(2) = (  0.994786  0.578364 -0.000000 )  
               b(3) = ( -0.000000  0.000000  0.319161 )  


     PseudoPot. # 1 for Si read from file:
     /home/meyn/q-e-qe-7.1/pseudo/Si.pbe-n-rrkjus_psl.1.0.0.UPF
     MD5 check sum: 56671f82560c68743c116fe4c72cdc4c
     Pseudo is Ultrasoft + core correction, Zval =  4.0
     Generated using "atomic" code by A. Dal Corso v.5.1.2
     Using radial grid of 1141 points,  6 beta functions with: 
                l(1) =   0
                l(2) =   0
                l(3) =   1
                l(4) =   1
                l(5) =   2
                l(6) =   2
     Q(r) pseudized with 0 coefficients 


     atomic species   valence    mass     pseudopotential
        Si             4.00    28.08550     Si( 1.00)

      4 Sym. Ops. (no inversion) found


                                    s                        frac. trans.

      isym =  1     identity                                     

 cryst.   s( 1) = (     1          0          0      )
                  (     0          1          0      )
                  (     0          0          1      )

 cart.    s( 1) = (  1.0000000  0.0000000  0.0000000 )
                  (  0.0000000  1.0000000  0.0000000 )
                  (  0.0000000  0.0000000  1.0000000 )


      isym =  2     180 deg rotation - cart. axis [0,1,0]        

 cryst.   s( 2) = (     0         -1          0      )
                  (    -1          0          0      )
                  (     0          0         -1      )

 cart.    s( 2) = ( -1.0000000  0.0000000  0.0000000 )
                  (  0.0000000  1.0000000  0.0000000 )
                  (  0.0000000  0.0000000 -1.0000000 )


      isym =  3     inv. 180 deg rotation - cart. axis [0,0,1]   

 cryst.   s( 3) = (     1          0          0      )
                  (     0          1          0      )
                  (     0          0         -1      )

 cart.    s( 3) = (  1.0000000  0.0000000  0.0000000 )
                  (  0.0000000  1.0000000  0.0000000 )
                  (  0.0000000  0.0000000 -1.0000000 )


      isym =  4     inv. 180 deg rotation - cart. axis [1,0,0]   

 cryst.   s( 4) = (     0         -1          0      )
                  (    -1          0          0      )
                  (     0          0          1      )

 cart.    s( 4) = ( -1.0000000  0.0000000  0.0000000 )
                  (  0.0000000  1.0000000  0.0000000 )
                  (  0.0000000  0.0000000  1.0000000 )


   Cartesian axes

     site n.     atom                  positions (alat units)
         1           Si  tau(   1) = (   0.0000000   0.0000000   0.0000000  )
         2           Si  tau(   2) = (   0.5026205   0.2939324   0.0000000  )

   Crystallographic axes

     site n.     atom                  positions (cryst. coord.)
         1           Si  tau(   1) = (  0.0000000  0.0000000  0.0000000  )
         2           Si  tau(   2) = (  0.3300000  0.6700000  0.0000000  )

     number of k points=    21  Marzari-Vanderbilt smearing, width (Ry)=  0.0147
                       cart. coord. in units 2pi/alat
        k(    1) = (   0.0000000   0.0000000   0.0000000), wk =   0.0312500
        k(    2) = (   0.1243483   0.0722955   0.0000000), wk =   0.1250000
        k(    3) = (   0.2486966   0.1445910   0.0000000), wk =   0.1250000
        k(    4) = (   0.3730449   0.2168866   0.0000000), wk =   0.1250000
        k(    5) = (  -0.4973932  -0.2891821   0.0000000), wk =   0.0625000
        k(    6) = (   0.2486966   0.0000000   0.0000000), wk =   0.0625000
        k(    7) = (   0.3730449   0.0722955   0.0000000), wk =   0.1250000
        k(    8) = (   0.4973932   0.1445910   0.0000000), wk =   0.1250000
        k(    9) = (  -0.3730449  -0.3614776   0.0000000), wk =   0.1250000
        k(   10) = (  -0.2486966  -0.2891821   0.0000000), wk =   0.1250000
        k(   11) = (  -0.1243483  -0.2168866   0.0000000), wk =   0.1250000
        k(   12) = (   0.0000000  -0.1445910   0.0000000), wk =   0.0625000
        k(   13) = (   0.4973932   0.0000000   0.0000000), wk =   0.0625000
        k(   14) = (   0.6217415   0.0722955   0.0000000), wk =   0.1250000
        k(   15) = (  -0.2486966  -0.4337731   0.0000000), wk =   0.1250000
        k(   16) = (  -0.1243483  -0.3614776   0.0000000), wk =   0.1250000
        k(   17) = (   0.0000000  -0.2891821   0.0000000), wk =   0.0625000
        k(   18) = (   0.7460898   0.0000000   0.0000000), wk =   0.0625000
        k(   19) = (  -0.1243483  -0.5060687   0.0000000), wk =   0.1250000
        k(   20) = (   0.0000000  -0.4337731   0.0000000), wk =   0.0625000
        k(   21) = (  -0.9947864   0.0000000   0.0000000), wk =   0.0312500

                       cryst. coord.
        k(    1) = (   0.0000000   0.0000000   0.0000000), wk =   0.0312500
        k(    2) = (   0.0000000   0.1250000   0.0000000), wk =   0.1250000
        k(    3) = (   0.0000000   0.2500000   0.0000000), wk =   0.1250000
        k(    4) = (   0.0000000   0.3750000   0.0000000), wk =   0.1250000
        k(    5) = (   0.0000000  -0.5000000   0.0000000), wk =   0.0625000
        k(    6) = (   0.1250000   0.1250000   0.0000000), wk =   0.0625000
        k(    7) = (   0.1250000   0.2500000   0.0000000), wk =   0.1250000
        k(    8) = (   0.1250000   0.3750000   0.0000000), wk =   0.1250000
        k(    9) = (   0.1250000  -0.5000000   0.0000000), wk =   0.1250000
        k(   10) = (   0.1250000  -0.3750000   0.0000000), wk =   0.1250000
        k(   11) = (   0.1250000  -0.2500000   0.0000000), wk =   0.1250000
        k(   12) = (   0.1250000  -0.1250000   0.0000000), wk =   0.0625000
        k(   13) = (   0.2500000   0.2500000   0.0000000), wk =   0.0625000
        k(   14) = (   0.2500000   0.3750000   0.0000000), wk =   0.1250000
        k(   15) = (   0.2500000  -0.5000000   0.0000000), wk =   0.1250000
        k(   16) = (   0.2500000  -0.3750000   0.0000000), wk =   0.1250000
        k(   17) = (   0.2500000  -0.2500000   0.0000000), wk =   0.0625000
        k(   18) = (   0.3750000   0.3750000   0.0000000), wk =   0.0625000
        k(   19) = (   0.3750000  -0.5000000   0.0000000), wk =   0.1250000
        k(   20) = (   0.3750000  -0.3750000   0.0000000), wk =   0.0625000
        k(   21) = (  -0.5000000  -0.5000000   0.0000000), wk =   0.0312500

     Dense  grid:    64713 G-vectors     FFT dimensions: (  36,  36, 120)

     Smooth grid:    22975 G-vectors     FFT dimensions: (  25,  25,  80)

     Dynamical RAM for                 wfc:       0.35 MB

     Dynamical RAM for     wfc (w. buffer):       7.69 MB

     Dynamical RAM for           str. fact:       0.99 MB

     Dynamical RAM for           local pot:       0.00 MB

     Dynamical RAM for          nlocal pot:       1.57 MB

     Dynamical RAM for                qrad:       1.43 MB

     Dynamical RAM for          rho,v,vnew:       6.52 MB

     Dynamical RAM for               rhoin:       2.17 MB

     Dynamical RAM for            rho*nmix:      15.80 MB

     Dynamical RAM for           G-vectors:       3.88 MB

     Dynamical RAM for          h,s,v(r/c):       0.05 MB

     Dynamical RAM for          <psi|beta>:       0.00 MB

     Dynamical RAM for                 psi:       1.40 MB

     Dynamical RAM for                hpsi:       1.40 MB

     Dynamical RAM for                spsi:       1.40 MB

     Dynamical RAM for      wfcinit/wfcrot:       0.70 MB

     Dynamical RAM for           addusdens:     185.64 MB

     Dynamical RAM for          addusforce:     188.12 MB

     Dynamical RAM for         addusstress:     198.48 MB

     Estimated static dynamical RAM per process >      47.97 MB

     Estimated max dynamical RAM per process >     246.44 MB

     Initial potential from superposition of free atoms

     starting charge    7.99888, renormalised to    8.00000

     negative rho (up, down):  3.014E-06 0.000E+00
     Starting wfcs are    8 randomized atomic wfcs

     total cpu time spent up to now is        1.9 secs

     Self-consistent Calculation

     iteration #  1     ecut=    30.00 Ry     beta= 0.40
     Davidson diagonalization with overlap
     ethr =  1.00E-02,  avg # of iterations =  4.3

     Threshold (ethr) on eigenvalues was too large:
     Diagonalizing with lowered threshold

     Davidson diagonalization with overlap
     ethr =  9.19E-04,  avg # of iterations =  1.0

     negative rho (up, down):  1.960E-06 0.000E+00

     total cpu time spent up to now is        4.6 secs

     total energy              =     -22.74122012 Ry
     Harris-Foulkes estimate   =     -22.76110766 Ry
     estimated scf accuracy    <       0.07244141 Ry

     iteration #  2     ecut=    30.00 Ry     beta= 0.40
     Davidson diagonalization with overlap
     ethr =  9.06E-04,  avg # of iterations =  1.0

     negative rho (up, down):  4.126E-06 0.000E+00

     total cpu time spent up to now is        5.8 secs

     total energy              =     -22.73776659 Ry
     Harris-Foulkes estimate   =     -22.74352368 Ry
     estimated scf accuracy    <       0.01730903 Ry

     iteration #  3     ecut=    30.00 Ry     beta= 0.40
     Davidson diagonalization with overlap
     ethr =  2.16E-04,  avg # of iterations =  4.2

     negative rho (up, down):  3.035E-06 0.000E+00

     total cpu time spent up to now is        7.3 secs

     total energy              =     -22.73965325 Ry
     Harris-Foulkes estimate   =     -22.73985920 Ry
     estimated scf accuracy    <       0.00063877 Ry

     iteration #  4     ecut=    30.00 Ry     beta= 0.40
     Davidson diagonalization with overlap
     ethr =  7.98E-06,  avg # of iterations =  5.4

     negative rho (up, down):  2.393E-06 0.000E+00

     total cpu time spent up to now is        8.8 secs

     total energy              =     -22.73972351 Ry
     Harris-Foulkes estimate   =     -22.73985686 Ry
     estimated scf accuracy    <       0.00021440 Ry

     iteration #  5     ecut=    30.00 Ry     beta= 0.40
     Davidson diagonalization with overlap
     ethr =  2.68E-06,  avg # of iterations =  2.3

     negative rho (up, down):  2.103E-06 0.000E+00

     total cpu time spent up to now is       10.2 secs

     total energy              =     -22.73976588 Ry
     Harris-Foulkes estimate   =     -22.73976744 Ry
     estimated scf accuracy    <       0.00000467 Ry

     iteration #  6     ecut=    30.00 Ry     beta= 0.40
     Davidson diagonalization with overlap
     ethr =  5.83E-08,  avg # of iterations =  2.0

     negative rho (up, down):  1.988E-06 0.000E+00

     total cpu time spent up to now is       11.4 secs

     total energy              =     -22.73976620 Ry
     Harris-Foulkes estimate   =     -22.73976649 Ry
     estimated scf accuracy    <       0.00000065 Ry

     iteration #  7     ecut=    30.00 Ry     beta= 0.40
     Davidson diagonalization with overlap
     ethr =  8.18E-09,  avg # of iterations =  2.0

     negative rho (up, down):  1.949E-06 0.000E+00

     total cpu time spent up to now is       12.7 secs

     total energy              =     -22.73976630 Ry
     Harris-Foulkes estimate   =     -22.73976631 Ry
     estimated scf accuracy    <       0.00000002 Ry

     iteration #  8     ecut=    30.00 Ry     beta= 0.40
     Davidson diagonalization with overlap
     ethr =  2.22E-10,  avg # of iterations =  2.1

     negative rho (up, down):  1.942E-06 0.000E+00

     total cpu time spent up to now is       13.9 secs

     total energy              =     -22.73976631 Ry
     Harris-Foulkes estimate   =     -22.73976631 Ry
     estimated scf accuracy    <          1.3E-09 Ry

     iteration #  9     ecut=    30.00 Ry     beta= 0.40
     Davidson diagonalization with overlap
     ethr =  1.68E-11,  avg # of iterations =  1.9

     negative rho (up, down):  1.944E-06 0.000E+00

     total cpu time spent up to now is       15.1 secs

     total energy              =     -22.73976630 Ry
     Harris-Foulkes estimate   =     -22.73976631 Ry
     estimated scf accuracy    <          4.8E-10 Ry

     iteration # 10     ecut=    30.00 Ry     beta= 0.40
     Davidson diagonalization with overlap
     ethr =  5.98E-12,  avg # of iterations =  2.0

     negative rho (up, down):  1.955E-06 0.000E+00

     total cpu time spent up to now is       16.5 secs

     End of self-consistent calculation

          k = 0.0000 0.0000 0.0000 (  2867 PWs)   bands (ev):

   -13.2212  -4.8625  -3.4898  -3.3424   0.1608   0.8478   1.1136   1.3580

     occupation numbers 
     1.0000   1.0000   1.0000   1.0000   0.0000   0.0000   0.0000   0.0000

          k = 0.1243 0.0723 0.0000 (  2885 PWs)   bands (ev):

   -13.0373  -4.6832  -4.5606  -3.7321   0.3811   1.5596   1.5931   1.7051

     occupation numbers 
     1.0000   1.0000   1.0000   1.0000   0.0000   0.0000   0.0000   0.0000

          k = 0.2487 0.1446 0.0000 (  2868 PWs)   bands (ev):

   -12.4968  -6.4806  -4.2555  -4.1556  -0.2472   1.7747   2.1746   3.3171

     occupation numbers 
     1.0000   1.0000   1.0000   1.0000   0.0000   0.0000   0.0000   0.0000

          k = 0.3730 0.2169 0.0000 (  2873 PWs)   bands (ev):

   -11.6594  -8.2451  -4.6527  -3.3390  -0.7473   0.0451   3.1710   4.8721

     occupation numbers 
     1.0000   1.0000   1.0000   1.0000   0.0000   0.0000   0.0000   0.0000

          k =-0.4974-0.2892 0.0000 (  2876 PWs)   bands (ev):

   -10.9930  -9.2311  -4.7948  -2.6949  -0.9263  -0.9148   4.2415   4.8302

     occupation numbers 
     1.0000   1.0000   1.0000   1.0000   0.0000   0.0000   0.0000   0.0000

          k = 0.2487 0.0000 0.0000 (  2867 PWs)   bands (ev):

   -12.6781  -5.8117  -4.4322  -4.3323   0.9346   1.3343   1.9701   2.3731

     occupation numbers 
     1.0000   1.0000   1.0000   1.0000   0.0000   0.0000   0.0000   0.0000

          k = 0.3730 0.0723 0.0000 (  2856 PWs)   bands (ev):

   -11.9815  -7.4587  -5.1306  -3.6523   0.5338   0.7704   2.7697   3.0288

     occupation numbers 
     1.0000   1.0000   1.0000   1.0000   0.0000   0.0000   0.0000   0.0000

          k = 0.4974 0.1446 0.0000 (  2859 PWs)   bands (ev):

   -11.0886  -8.9179  -5.4797  -2.7842  -0.6374   0.2147   3.8198   3.9060

     occupation numbers 
     1.0000   1.0000   1.0000   1.0000   0.0000   0.0000   0.0000   0.0000

          k =-0.3730-0.3615 0.0000 (  2863 PWs)   bands (ev):

   -11.0686  -8.9533  -5.4571  -2.7669  -0.6664   0.2056   3.8491   3.9213

     occupation numbers 
     1.0000   1.0000   1.0000   1.0000   0.0000   0.0000   0.0000   0.0000

          k =-0.2487-0.2892 0.0000 (  2861 PWs)   bands (ev):

   -11.9620  -7.5283  -5.0607  -3.6350   0.5137   0.7201   2.7818   2.9372

     occupation numbers 
     1.0000   1.0000   1.0000   1.0000   0.0000   0.0000   0.0000   0.0000

          k =-0.1243-0.2169 0.0000 (  2873 PWs)   bands (ev):

   -12.6663  -5.9081  -4.3219  -4.3217   1.0455   1.1319   1.9764   2.3225

     occupation numbers 
     1.0000   1.0000   1.0000   1.0000   0.0000   0.0000   0.0000   0.0000

          k = 0.0000-0.1446 0.0000 (  2879 PWs)   bands (ev):

   -13.0334  -4.6797  -4.6273  -3.6578   0.3984   1.5356   1.5649   1.6971

     occupation numbers 
     1.0000   1.0000   1.0000   1.0000   0.0000   0.0000   0.0000   0.0000

          k = 0.4974 0.0000 0.0000 (  2852 PWs)   bands (ev):

   -11.1685  -8.5452  -6.1151  -2.8598  -0.3276   2.2129   2.9131   3.0633

     occupation numbers 
     1.0000   1.0000   1.0000   1.0000   0.0000   0.0000   0.0000   0.0000

          k = 0.6217 0.0723 0.0000 (  2846 PWs)   bands (ev):

   -10.4050  -9.4418  -6.4411  -2.1221  -1.1902   2.3424   2.6714   4.4469

     occupation numbers 
     1.0000   1.0000   1.0000   1.0673   0.0000   0.0000   0.0000   0.0000

          k =-0.2487-0.4338 0.0000 (  2854 PWs)   bands (ev):

   -11.1130  -8.6561  -6.0530  -2.8118  -0.4107   2.2973   2.7160   3.1125

     occupation numbers 
     1.0000   1.0000   1.0000   1.0000   0.0000   0.0000   0.0000   0.0000

          k =-0.1243-0.3615 0.0000 (  2862 PWs)   bands (ev):

   -11.9451  -7.5597  -5.0568  -3.6203   0.5152   0.7011   2.7919   2.9310

     occupation numbers 
     1.0000   1.0000   1.0000   1.0000   0.0000   0.0000   0.0000   0.0000

          k = 0.0000-0.2892 0.0000 (  2861 PWs)   bands (ev):

   -12.4791  -6.5371  -4.2198  -4.1401  -0.2368   1.7438   2.1842   3.2121

     occupation numbers 
     1.0000   1.0000   1.0000   1.0000   0.0000   0.0000   0.0000   0.0000

          k = 0.7461 0.0000 0.0000 (  2856 PWs)   bands (ev):

   -10.2719  -9.6025  -6.4155  -2.0158  -1.3126   2.3120   2.6856   4.4603

     occupation numbers 
     1.0000   1.0000   1.0000   0.8652   0.0000   0.0000   0.0000   0.0000

          k =-0.1243-0.5061 0.0000 (  2857 PWs)   bands (ev):

   -10.9888  -9.0592  -5.4453  -2.7005  -0.7457   0.1838   3.8395   3.9497

     occupation numbers 
     1.0000   1.0000   1.0000   1.0000   0.0000   0.0000   0.0000   0.0000

          k = 0.0000-0.4338 0.0000 (  2885 PWs)   bands (ev):

   -11.6056  -8.3294  -4.6393  -3.2929  -0.7576  -0.0160   3.1941   5.4767

     occupation numbers 
     1.0000   1.0000   1.0000   1.0000   0.0000   0.0000   0.0000   0.0000

          k =-0.9948 0.0000 0.0000 (  2888 PWs)   bands (ev):

   -10.8573  -9.3953  -4.7883  -2.5846  -1.0400  -0.9436   4.3104   4.8109

     occupation numbers 
     1.0000   1.0000   1.0000   1.0001   0.0000   0.0000   0.0000   0.0000

     the Fermi energy is    -1.8859 ev

!    total energy              =     -22.73976630 Ry
     Harris-Foulkes estimate   =     -22.73976630 Ry
     estimated scf accuracy    <          2.6E-11 Ry

     The total energy is the sum of the following terms:

     one-electron contribution =     -39.49728712 Ry
     hartree contribution      =      20.98756897 Ry
     xc contribution           =     -12.21489382 Ry
     ewald contribution        =       7.98458886 Ry
     smearing contrib. (-TS)   =       0.00025681 Ry

     convergence has been achieved in  10 iterations

     negative rho (up, down):  1.955E-06 0.000E+00

     Forces acting on atoms (cartesian axes, Ry/au):

     atom    1 type  1   force =     0.00000000    0.02146483    0.00000000
     atom    2 type  1   force =     0.00000000   -0.02146483    0.00000000
     The non-local contrib.  to forces
     atom    1 type  1   force =     0.00000000    0.02361703    0.00000000
     atom    2 type  1   force =     0.00000000   -0.02365963    0.00000000
     The ionic contribution  to forces
     atom    1 type  1   force =    -0.00000000    0.06637603   -0.00000000
     atom    2 type  1   force =     0.00000000   -0.06637603   -0.00000000
     The local contribution  to forces
     atom    1 type  1   force =     0.00000000   -0.06576186    0.00000000
     atom    2 type  1   force =     0.00000000    0.06576834    0.00000000
     The core correction contribution to forces
     atom    1 type  1   force =    -0.00000000   -0.00277786    0.00000000
     atom    2 type  1   force =    -0.00000000    0.00279048    0.00000000
     The Hubbard contrib.    to forces
     atom    1 type  1   force =     0.00000000    0.00000000    0.00000000
     atom    2 type  1   force =     0.00000000    0.00000000    0.00000000
     The SCF correction term to forces
     atom    1 type  1   force =    -0.00000000   -0.00000023   -0.00000000
     atom    2 type  1   force =    -0.00000000    0.00000029   -0.00000000

     Total force =     0.030356     Total SCF correction =     0.000000


     Computing stress (Cartesian axis) and pressure


     negative rho (up, down):  1.955E-06 0.000E+00
          total   stress  (Ry/bohr**3)                   (kbar)     P=   12.43
   0.00008919   0.00000000   0.00000000         13.12      0.00      0.00
   0.00000000   0.00016471   0.00000000          0.00     24.23      0.00
   0.00000000   0.00000000  -0.00000041          0.00      0.00     -0.06

     kinetic stress (kbar)    527.93      0.00      0.00
                                0.00    525.36      0.00
                                0.00      0.00    656.14

     local   stress (kbar)  -6541.54     -0.00      0.00
                               -0.00  -6588.77      0.00
                                0.00      0.00   6824.20

     nonloc. stress (kbar)    447.66     -0.00      0.00
                                0.00    454.57      0.00
                                0.00      0.00    378.96

     hartree stress (kbar)   2913.56      0.00     -0.00
                                0.00   2919.99      0.00
                               -0.00      0.00  -2842.72

     exc-cor stress (kbar)    778.05      0.00      0.00
                                0.00    778.40      0.00
                                0.00      0.00    768.94

     corecor stress (kbar)  -1036.27     -0.00      0.00
                               -0.00  -1037.18     -0.00
                                0.00     -0.00  -1027.84

     ewald   stress (kbar)   2923.73      0.00     -0.00
                                0.00   2971.85     -0.00
                               -0.00     -0.00  -4757.74

     hubbard stress (kbar)      0.00      0.00      0.00
                                0.00      0.00      0.00
                                0.00      0.00      0.00

     london  stress (kbar)      0.00      0.00      0.00
                                0.00      0.00      0.00
                                0.00      0.00      0.00

     DFT-D3  stress (kbar)      0.00      0.00      0.00
                                0.00      0.00      0.00
                                0.00      0.00      0.00

     XDM     stress (kbar)      0.00      0.00      0.00
                                0.00      0.00      0.00
                                0.00      0.00      0.00

     dft-nl  stress (kbar)      0.00      0.00      0.00
                                0.00      0.00      0.00
                                0.00      0.00      0.00

     TS-vdW  stress (kbar)      0.00      0.00      0.00
                                0.00      0.00      0.00
                                0.00      0.00      0.00



     Writing output data file silicene.save/

     init_run     :      1.19s CPU      1.29s WALL (       1 calls)
     electrons    :     13.84s CPU     14.60s WALL (       1 calls)
     forces       :      0.76s CPU      0.77s WALL (       1 calls)
     stress       :      2.05s CPU      2.12s WALL (       1 calls)

     Called by init_run:
     wfcinit      :      0.26s CPU      0.26s WALL (       1 calls)
     wfcinit:atom :      0.01s CPU      0.01s WALL (      21 calls)
     wfcinit:wfcr :      0.21s CPU      0.21s WALL (      21 calls)
     potinit      :      0.24s CPU      0.24s WALL (       1 calls)
     hinit0       :      0.51s CPU      0.51s WALL (       1 calls)

     Called by electrons:
     c_bands      :      8.19s CPU      8.33s WALL (      11 calls)
     sum_band     :      3.17s CPU      3.63s WALL (      11 calls)
     v_of_rho     :      0.78s CPU      0.80s WALL (      11 calls)
     v_h          :      0.05s CPU      0.05s WALL (      11 calls)
     v_xc         :      0.86s CPU      0.88s WALL (      13 calls)
     newd         :      1.78s CPU      1.99s WALL (      11 calls)
     mix_rho      :      0.10s CPU      0.10s WALL (      11 calls)

     Called by c_bands:
     init_us_2    :      0.41s CPU      0.41s WALL (     525 calls)
     cegterg      :      6.86s CPU      7.00s WALL (     231 calls)

     Called by sum_band:
     sum_band:bec :      0.00s CPU      0.00s WALL (     231 calls)
     addusdens    :      1.85s CPU      2.29s WALL (      11 calls)

     Called by *egterg:
     h_psi        :      4.97s CPU      5.03s WALL (     847 calls)
     s_psi        :      0.76s CPU      0.80s WALL (     847 calls)
     g_psi        :      0.05s CPU      0.05s WALL (     595 calls)
     cdiaghg      :      0.10s CPU      0.10s WALL (     805 calls)
     cegterg:over :      0.47s CPU      0.48s WALL (     595 calls)
     cegterg:upda :      0.31s CPU      0.34s WALL (     595 calls)
     cegterg:last :      0.18s CPU      0.18s WALL (     237 calls)

     Called by h_psi:
     h_psi:pot    :      4.94s CPU      5.00s WALL (     847 calls)
     h_psi:calbec :      0.84s CPU      0.84s WALL (     847 calls)
     vloc_psi     :      3.34s CPU      3.36s WALL (     847 calls)
     add_vuspsi   :      0.76s CPU      0.78s WALL (     847 calls)

     General routines
     calbec       :      1.27s CPU      1.28s WALL (    1183 calls)
     fft          :      0.54s CPU      0.54s WALL (     167 calls)
     ffts         :      0.02s CPU      0.02s WALL (      22 calls)
     fftw         :      3.25s CPU      3.27s WALL (   11502 calls)
     interpolate  :      0.05s CPU      0.05s WALL (      11 calls)

     Parallel routines

     PWSCF        :     18.47s CPU     19.40s WALL


   This run was terminated on:  21:45:29  22Sep2023            

=------------------------------------------------------------------------------=
   JOB DONE.
=------------------------------------------------------------------------------=
