### Running on host: LAPTOP-C0A2DPIS

     Program PWSCF v.6.4.1 starts on 22Sep2023 at 21: 8:39 

     This program is part of the open-source Quantum ESPRESSO suite
     for quantum simulation of materials; please cite
         "P. Giannozzi et al., J. Phys.:Condens. Matter 21 395502 (2009);
         "P. Giannozzi et al., J. Phys.:Condens. Matter 29 465901 (2017);
          URL http://www.quantum-espresso.org", 
     in publications or presentations arising from this work. More details at
     http://www.quantum-espresso.org/quote

     Parallel version (MPI), running on     1 processors

     MPI processes distributed on     1 nodes
     Reading input from silicene_scf_ecutwfc-20.in

     Current dimensions of program PWSCF are:
     Max number of different atomic species (ntypx) = 10
     Max number of k-points (npk) =  40000
     Max angular momentum in pseudopotentials (lmaxx) =  3
     Message from routine read_upf::
     Pseudo file Si.pbe-n-rrkjus_psl.1.0.0.UPF has been fixed on the fly.
To avoid this message in the future, permanently fix 
 your pseudo files following these instructions: 
https://gitlab.com/QEF/q-e/blob/master/upftools/how_to_fix_upf.md

     Subspace diagonalization in iterative solution of the eigenvalue problem:
     a serial algorithm will be used

     Message from routine setup:
     DEPRECATED: symmetry with ibrav=0, use correct ibrav instead

     G-vector sticks info
     --------------------
     sticks:   dense  smooth     PW     G-vecs:    dense   smooth      PW
     Sum         859     295    109                64713    12491    2635



     bravais-lattice index     =            0
     lattice parameter (alat)  =       7.2375  a.u.
     unit-cell volume          =    1032.2806 (a.u.)^3
     number of atoms/cell      =            2
     number of atomic types    =            1
     number of electrons       =         8.00
     number of Kohn-Sham states=            8
     kinetic-energy cutoff     =      20.0000  Ry
     charge density cutoff     =     240.0000  Ry
     convergence threshold     =      4.0E-10
     mixing beta               =       0.4000
     number of iterations used =            8  plain     mixing
     Exchange-correlation      = PBE ( 1  4  3  4 0 0)

     celldm(1)=   7.237514  celldm(2)=   0.000000  celldm(3)=   0.000000
     celldm(4)=   0.000000  celldm(5)=   0.000000  celldm(6)=   0.000000

     crystal axes: (cart. coord. in units of alat)
               a(1) = (   0.502620  -0.864507   0.000000 )  
               a(2) = (   0.502620   0.864507   0.000000 )  
               a(3) = (   0.000000   0.000000   3.133218 )  

     reciprocal axes: (cart. coord. in units 2 pi/alat)
               b(1) = (  0.994786 -0.578364  0.000000 )  
               b(2) = (  0.994786  0.578364 -0.000000 )  
               b(3) = ( -0.000000  0.000000  0.319161 )  


     PseudoPot. # 1 for Si read from file:
     /home/meyn/q-e-qe-7.1/pseudo/Si.pbe-n-rrkjus_psl.1.0.0.UPF
     MD5 check sum: 56671f82560c68743c116fe4c72cdc4c
     Pseudo is Ultrasoft + core correction, Zval =  4.0
     Generated using "atomic" code by A. Dal Corso v.5.1.2
     Using radial grid of 1141 points,  6 beta functions with: 
                l(1) =   0
                l(2) =   0
                l(3) =   1
                l(4) =   1
                l(5) =   2
                l(6) =   2
     Q(r) pseudized with 0 coefficients 


     atomic species   valence    mass     pseudopotential
        Si             4.00    28.08550     Si( 1.00)

      4 Sym. Ops. (no inversion) found


                                    s                        frac. trans.

      isym =  1     identity                                     

 cryst.   s( 1) = (     1          0          0      )
                  (     0          1          0      )
                  (     0          0          1      )

 cart.    s( 1) = (  1.0000000  0.0000000  0.0000000 )
                  (  0.0000000  1.0000000  0.0000000 )
                  (  0.0000000  0.0000000  1.0000000 )


      isym =  2     180 deg rotation - cart. axis [0,1,0]        

 cryst.   s( 2) = (     0         -1          0      )
                  (    -1          0          0      )
                  (     0          0         -1      )

 cart.    s( 2) = ( -1.0000000  0.0000000  0.0000000 )
                  (  0.0000000  1.0000000  0.0000000 )
                  (  0.0000000  0.0000000 -1.0000000 )


      isym =  3     inv. 180 deg rotation - cart. axis [0,0,1]   

 cryst.   s( 3) = (     1          0          0      )
                  (     0          1          0      )
                  (     0          0         -1      )

 cart.    s( 3) = (  1.0000000  0.0000000  0.0000000 )
                  (  0.0000000  1.0000000  0.0000000 )
                  (  0.0000000  0.0000000 -1.0000000 )


      isym =  4     inv. 180 deg rotation - cart. axis [1,0,0]   

 cryst.   s( 4) = (     0         -1          0      )
                  (    -1          0          0      )
                  (     0          0          1      )

 cart.    s( 4) = ( -1.0000000  0.0000000  0.0000000 )
                  (  0.0000000  1.0000000  0.0000000 )
                  (  0.0000000  0.0000000  1.0000000 )


   Cartesian axes

     site n.     atom                  positions (alat units)
         1           Si  tau(   1) = (   0.0000000   0.0000000   0.0000000  )
         2           Si  tau(   2) = (   0.5026205   0.2939324   0.0000000  )

   Crystallographic axes

     site n.     atom                  positions (cryst. coord.)
         1           Si  tau(   1) = (  0.0000000  0.0000000  0.0000000  )
         2           Si  tau(   2) = (  0.3300000  0.6700000  0.0000000  )

     number of k points=    31  Marzari-Vanderbilt smearing, width (Ry)=  0.0147
                       cart. coord. in units 2pi/alat
        k(    1) = (   0.0000000   0.0000000   0.0000000), wk =   0.0200000
        k(    2) = (   0.0994786   0.0578364   0.0000000), wk =   0.0800000
        k(    3) = (   0.1989573   0.1156728   0.0000000), wk =   0.0800000
        k(    4) = (   0.2984359   0.1735093   0.0000000), wk =   0.0800000
        k(    5) = (   0.3979146   0.2313457   0.0000000), wk =   0.0800000
        k(    6) = (  -0.4973932  -0.2891821   0.0000000), wk =   0.0400000
        k(    7) = (   0.1989573   0.0000000   0.0000000), wk =   0.0400000
        k(    8) = (   0.2984359   0.0578364   0.0000000), wk =   0.0800000
        k(    9) = (   0.3979146   0.1156728   0.0000000), wk =   0.0800000
        k(   10) = (   0.4973932   0.1735093   0.0000000), wk =   0.0800000
        k(   11) = (  -0.3979146  -0.3470185   0.0000000), wk =   0.0800000
        k(   12) = (  -0.2984359  -0.2891821   0.0000000), wk =   0.0800000
        k(   13) = (  -0.1989573  -0.2313457   0.0000000), wk =   0.0800000
        k(   14) = (  -0.0994786  -0.1735093   0.0000000), wk =   0.0800000
        k(   15) = (   0.0000000  -0.1156728   0.0000000), wk =   0.0400000
        k(   16) = (   0.3979146   0.0000000   0.0000000), wk =   0.0400000
        k(   17) = (   0.4973932   0.0578364   0.0000000), wk =   0.0800000
        k(   18) = (   0.5968718   0.1156728   0.0000000), wk =   0.0800000
        k(   19) = (  -0.2984359  -0.4048549   0.0000000), wk =   0.0800000
        k(   20) = (  -0.1989573  -0.3470185   0.0000000), wk =   0.0800000
        k(   21) = (  -0.0994786  -0.2891821   0.0000000), wk =   0.0800000
        k(   22) = (   0.0000000  -0.2313457   0.0000000), wk =   0.0400000
        k(   23) = (   0.5968718   0.0000000   0.0000000), wk =   0.0400000
        k(   24) = (   0.6963505   0.0578364   0.0000000), wk =   0.0800000
        k(   25) = (  -0.1989573  -0.4626914   0.0000000), wk =   0.0800000
        k(   26) = (  -0.0994786  -0.4048549   0.0000000), wk =   0.0800000
        k(   27) = (  -0.0000000  -0.3470185   0.0000000), wk =   0.0400000
        k(   28) = (   0.7958291   0.0000000   0.0000000), wk =   0.0400000
        k(   29) = (  -0.0994786  -0.5205278   0.0000000), wk =   0.0800000
        k(   30) = (   0.0000000  -0.4626914   0.0000000), wk =   0.0400000
        k(   31) = (  -0.9947864   0.0000000   0.0000000), wk =   0.0200000

                       cryst. coord.
        k(    1) = (   0.0000000   0.0000000   0.0000000), wk =   0.0200000
        k(    2) = (   0.0000000   0.1000000   0.0000000), wk =   0.0800000
        k(    3) = (   0.0000000   0.2000000   0.0000000), wk =   0.0800000
        k(    4) = (   0.0000000   0.3000000   0.0000000), wk =   0.0800000
        k(    5) = (   0.0000000   0.4000000   0.0000000), wk =   0.0800000
        k(    6) = (   0.0000000  -0.5000000   0.0000000), wk =   0.0400000
        k(    7) = (   0.1000000   0.1000000   0.0000000), wk =   0.0400000
        k(    8) = (   0.1000000   0.2000000   0.0000000), wk =   0.0800000
        k(    9) = (   0.1000000   0.3000000   0.0000000), wk =   0.0800000
        k(   10) = (   0.1000000   0.4000000   0.0000000), wk =   0.0800000
        k(   11) = (   0.1000000  -0.5000000   0.0000000), wk =   0.0800000
        k(   12) = (   0.1000000  -0.4000000   0.0000000), wk =   0.0800000
        k(   13) = (   0.1000000  -0.3000000   0.0000000), wk =   0.0800000
        k(   14) = (   0.1000000  -0.2000000   0.0000000), wk =   0.0800000
        k(   15) = (   0.1000000  -0.1000000   0.0000000), wk =   0.0400000
        k(   16) = (   0.2000000   0.2000000   0.0000000), wk =   0.0400000
        k(   17) = (   0.2000000   0.3000000   0.0000000), wk =   0.0800000
        k(   18) = (   0.2000000   0.4000000   0.0000000), wk =   0.0800000
        k(   19) = (   0.2000000  -0.5000000   0.0000000), wk =   0.0800000
        k(   20) = (   0.2000000  -0.4000000   0.0000000), wk =   0.0800000
        k(   21) = (   0.2000000  -0.3000000   0.0000000), wk =   0.0800000
        k(   22) = (   0.2000000  -0.2000000   0.0000000), wk =   0.0400000
        k(   23) = (   0.3000000   0.3000000   0.0000000), wk =   0.0400000
        k(   24) = (   0.3000000   0.4000000   0.0000000), wk =   0.0800000
        k(   25) = (   0.3000000  -0.5000000   0.0000000), wk =   0.0800000
        k(   26) = (   0.3000000  -0.4000000   0.0000000), wk =   0.0800000
        k(   27) = (   0.3000000  -0.3000000   0.0000000), wk =   0.0400000
        k(   28) = (   0.4000000   0.4000000   0.0000000), wk =   0.0400000
        k(   29) = (   0.4000000  -0.5000000   0.0000000), wk =   0.0800000
        k(   30) = (   0.4000000  -0.4000000   0.0000000), wk =   0.0400000
        k(   31) = (  -0.5000000  -0.5000000   0.0000000), wk =   0.0200000

     Dense  grid:    64713 G-vectors     FFT dimensions: (  36,  36, 120)

     Smooth grid:    12491 G-vectors     FFT dimensions: (  24,  24,  72)

     Dynamical RAM for                 wfc:       0.19 MB

     Dynamical RAM for     wfc (w. buffer):       6.09 MB

     Dynamical RAM for           str. fact:       0.99 MB

     Dynamical RAM for           local pot:       0.00 MB

     Dynamical RAM for          nlocal pot:       0.86 MB

     Dynamical RAM for                qrad:       1.43 MB

     Dynamical RAM for          rho,v,vnew:       6.52 MB

     Dynamical RAM for               rhoin:       2.17 MB

     Dynamical RAM for            rho*nmix:      15.80 MB

     Dynamical RAM for           G-vectors:       3.80 MB

     Dynamical RAM for          h,s,v(r/c):       0.05 MB

     Dynamical RAM for          <psi|beta>:       0.00 MB

     Dynamical RAM for                 psi:       0.76 MB

     Dynamical RAM for                hpsi:       0.76 MB

     Dynamical RAM for                spsi:       0.76 MB

     Dynamical RAM for      wfcinit/wfcrot:       0.38 MB

     Dynamical RAM for           addusdens:     185.64 MB

     Dynamical RAM for          addusforce:     188.12 MB

     Dynamical RAM for         addusstress:     198.48 MB

     Estimated static dynamical RAM per process >      45.57 MB

     Estimated max dynamical RAM per process >     244.04 MB

     Initial potential from superposition of free atoms

     starting charge    7.99888, renormalised to    8.00000

     negative rho (up, down):  3.014E-06 0.000E+00
     Starting wfcs are    8 randomized atomic wfcs

     total cpu time spent up to now is        1.8 secs

     Self-consistent Calculation

     iteration #  1     ecut=    20.00 Ry     beta= 0.40
     Davidson diagonalization with overlap
     ethr =  1.00E-02,  avg # of iterations =  4.5

     Threshold (ethr) on eigenvalues was too large:
     Diagonalizing with lowered threshold

     Davidson diagonalization with overlap
     ethr =  9.13E-04,  avg # of iterations =  1.5

     negative rho (up, down):  1.760E-06 0.000E+00

     total cpu time spent up to now is        4.9 secs

     total energy              =     -22.73967890 Ry
     Harris-Foulkes estimate   =     -22.75946409 Ry
     estimated scf accuracy    <       0.07211359 Ry

     iteration #  2     ecut=    20.00 Ry     beta= 0.40
     Davidson diagonalization with overlap
     ethr =  9.01E-04,  avg # of iterations =  1.0

     negative rho (up, down):  1.540E-05 0.000E+00

     total cpu time spent up to now is        6.3 secs

     total energy              =     -22.73637135 Ry
     Harris-Foulkes estimate   =     -22.74200666 Ry
     estimated scf accuracy    <       0.01711983 Ry

     iteration #  3     ecut=    20.00 Ry     beta= 0.40
     Davidson diagonalization with overlap
     ethr =  2.14E-04,  avg # of iterations =  4.0

     negative rho (up, down):  9.669E-06 0.000E+00

     total cpu time spent up to now is        7.7 secs

     total energy              =     -22.73819745 Ry
     Harris-Foulkes estimate   =     -22.73838646 Ry
     estimated scf accuracy    <       0.00062070 Ry

     iteration #  4     ecut=    20.00 Ry     beta= 0.40
     Davidson diagonalization with overlap
     ethr =  7.76E-06,  avg # of iterations =  5.1

     negative rho (up, down):  5.946E-06 0.000E+00

     total cpu time spent up to now is        9.6 secs

     total energy              =     -22.73828230 Ry
     Harris-Foulkes estimate   =     -22.73837593 Ry
     estimated scf accuracy    <       0.00015188 Ry

     iteration #  5     ecut=    20.00 Ry     beta= 0.40
     Davidson diagonalization with overlap
     ethr =  1.90E-06,  avg # of iterations =  2.4

     negative rho (up, down):  3.696E-06 0.000E+00

     total cpu time spent up to now is       11.0 secs

     total energy              =     -22.73831295 Ry
     Harris-Foulkes estimate   =     -22.73831469 Ry
     estimated scf accuracy    <       0.00000424 Ry

     iteration #  6     ecut=    20.00 Ry     beta= 0.40
     Davidson diagonalization with overlap
     ethr =  5.30E-08,  avg # of iterations =  2.1

     negative rho (up, down):  2.589E-06 0.000E+00

     total cpu time spent up to now is       12.9 secs

     total energy              =     -22.73831380 Ry
     Harris-Foulkes estimate   =     -22.73831373 Ry
     estimated scf accuracy    <       0.00000010 Ry

     iteration #  7     ecut=    20.00 Ry     beta= 0.40
     Davidson diagonalization with overlap
     ethr =  1.24E-09,  avg # of iterations =  2.3

     negative rho (up, down):  2.039E-06 0.000E+00

     total cpu time spent up to now is       14.5 secs

     total energy              =     -22.73831378 Ry
     Harris-Foulkes estimate   =     -22.73831381 Ry
     estimated scf accuracy    <       0.00000007 Ry

     iteration #  8     ecut=    20.00 Ry     beta= 0.40
     Davidson diagonalization with overlap
     ethr =  8.22E-10,  avg # of iterations =  1.9

     negative rho (up, down):  1.817E-06 0.000E+00

     total cpu time spent up to now is       16.0 secs

     total energy              =     -22.73831378 Ry
     Harris-Foulkes estimate   =     -22.73831379 Ry
     estimated scf accuracy    <          2.6E-09 Ry

     iteration #  9     ecut=    20.00 Ry     beta= 0.40
     Davidson diagonalization with overlap
     ethr =  3.27E-11,  avg # of iterations =  2.5

     negative rho (up, down):  1.683E-06 0.000E+00

     total cpu time spent up to now is       17.3 secs

     End of self-consistent calculation

          k = 0.0000 0.0000 0.0000 (  1549 PWs)   bands (ev):

   -13.2204  -4.8629  -3.4871  -3.3375   0.1633   0.8561   1.1244   1.3619

     occupation numbers 
     1.0000   1.0000   1.0000   1.0000   0.0000   0.0000   0.0000   0.0000

          k = 0.0995 0.0578 0.0000 (  1541 PWs)   bands (ev):

   -13.1028  -4.7479  -4.2052  -3.6347   0.4657   1.2442   1.4914   1.5012

     occupation numbers 
     1.0000   1.0000   1.0000   1.0000   0.0000   0.0000   0.0000   0.0000

          k = 0.1990 0.1157 0.0000 (  1548 PWs)   bands (ev):

   -12.7535  -5.7064  -4.4067  -4.0465   0.0189   1.8855   2.5386   2.6011

     occupation numbers 
     1.0000   1.0000   1.0000   1.0000   0.0000   0.0000   0.0000   0.0000

          k = 0.2984 0.1735 0.0000 (  1557 PWs)   bands (ev):

   -12.1897  -7.2252  -4.4399  -3.8558  -0.4717   1.0498   2.5334   4.1639

     occupation numbers 
     1.0000   1.0000   1.0000   1.0000   0.0000   0.0000   0.0000   0.0000

          k = 0.3979 0.2313 0.0000 (  1562 PWs)   bands (ev):

   -11.4756  -8.5430  -4.7037  -3.1597  -0.8028  -0.2418   3.4142   5.0864

     occupation numbers 
     1.0000   1.0000   1.0000   1.0000   0.0000   0.0000   0.0000   0.0000

          k =-0.4974-0.2892 0.0000 (  1554 PWs)   bands (ev):

   -10.9932  -9.2306  -4.7952  -2.6942  -0.9175  -0.9102   4.2486   4.8336

     occupation numbers 
     1.0000   1.0000   1.0000   1.0000   0.0000   0.0000   0.0000   0.0000

          k = 0.1990 0.0000 0.0000 (  1543 PWs)   bands (ev):

   -12.8714  -5.1816  -4.5217  -4.1184   0.8604   1.1200   1.7542   2.9307

     occupation numbers 
     1.0000   1.0000   1.0000   1.0000   0.0000   0.0000   0.0000   0.0000

          k = 0.2984 0.0578 0.0000 (  1554 PWs)   bands (ev):

   -12.4154  -6.5521  -4.6744  -4.0760   0.4676   1.6663   2.2659   2.3380

     occupation numbers 
     1.0000   1.0000   1.0000   1.0000   0.0000   0.0000   0.0000   0.0000

          k = 0.3979 0.1157 0.0000 (  1559 PWs)   bands (ev):

   -11.7647  -7.9253  -5.0793  -3.4405   0.0739   0.3369   3.0372   3.9861

     occupation numbers 
     1.0000   1.0000   1.0000   1.0000   0.0000   0.0000   0.0000   0.0000

          k = 0.4974 0.1735 0.0000 (  1563 PWs)   bands (ev):

   -11.0612  -9.0177  -5.2812  -2.7575  -0.7208  -0.1432   3.9860   4.1220

     occupation numbers 
     1.0000   1.0000   1.0000   1.0000   0.0000   0.0000   0.0000   0.0000

          k =-0.3979-0.3470 0.0000 (  1569 PWs)   bands (ev):

   -11.0474  -9.0415  -5.2657  -2.7456  -0.7405  -0.1507   3.9982   4.1455

     occupation numbers 
     1.0000   1.0000   1.0000   1.0000   0.0000   0.0000   0.0000   0.0000

          k =-0.2984-0.2892 0.0000 (  1559 PWs)   bands (ev):

   -11.7478  -7.9736  -5.0317  -3.4255   0.0541   0.2996   3.0477   3.9031

     occupation numbers 
     1.0000   1.0000   1.0000   1.0000   0.0000   0.0000   0.0000   0.0000

          k =-0.1990-0.2313 0.0000 (  1554 PWs)   bands (ev):

   -12.4029  -6.6233  -4.5913  -4.0649   0.4443   1.6206   2.2524   2.2841

     occupation numbers 
     1.0000   1.0000   1.0000   1.0000   0.0000   0.0000   0.0000   0.0000

          k =-0.0995-0.1735 0.0000 (  1546 PWs)   bands (ev):

   -12.8640  -5.2789  -4.5151  -4.0031   0.9150   0.9982   1.7580   2.9190

     occupation numbers 
     1.0000   1.0000   1.0000   1.0000   0.0000   0.0000   0.0000   0.0000

          k = 0.0000-0.1157 0.0000 (  1529 PWs)   bands (ev):

   -13.1003  -4.7457  -4.2788  -3.5518   0.4636   1.3121   1.3994   1.4953

     occupation numbers 
     1.0000   1.0000   1.0000   1.0000   0.0000   0.0000   0.0000   0.0000

          k = 0.3979 0.0000 0.0000 (  1559 PWs)   bands (ev):

   -11.8652  -7.5558  -5.4851  -3.5383   0.6497   1.5596   2.1900   2.9127

     occupation numbers 
     1.0000   1.0000   1.0000   1.0000   0.0000   0.0000   0.0000   0.0000

          k = 0.4974 0.0578 0.0000 (  1559 PWs)   bands (ev):

   -11.1544  -8.6235  -5.9920  -2.8453  -0.3867   1.5231   3.2108   3.6420

     occupation numbers 
     1.0000   1.0000   1.0000   1.0000   0.0000   0.0000   0.0000   0.0000

          k = 0.5969 0.1157 0.0000 (  1575 PWs)   bands (ev):

   -10.6161  -9.3128  -6.1385  -2.3267  -1.0428   1.4349   3.0237   4.4586

     occupation numbers 
     1.0000   1.0000   1.0000   1.0408   0.0000   0.0000   0.0000   0.0000

          k =-0.2984-0.4049 0.0000 (  1562 PWs)   bands (ev):

   -11.1134  -8.7059  -5.9420  -2.8099  -0.4500   1.5223   3.2560   3.5512

     occupation numbers 
     1.0000   1.0000   1.0000   1.0000   0.0000   0.0000   0.0000   0.0000

          k =-0.1990-0.3470 0.0000 (  1555 PWs)   bands (ev):

   -11.8323  -7.6619  -5.3964  -3.5094   0.5772   1.6502   1.9838   2.9290

     occupation numbers 
     1.0000   1.0000   1.0000   1.0000   0.0000   0.0000   0.0000   0.0000

          k =-0.0995-0.2892 0.0000 (  1555 PWs)   bands (ev):

   -12.3938  -6.6473  -4.5846  -4.0569   0.4645   1.6092   2.2300   2.2847

     occupation numbers 
     1.0000   1.0000   1.0000   1.0000   0.0000   0.0000   0.0000   0.0000

          k = 0.0000-0.2313 0.0000 (  1553 PWs)   bands (ev):

   -12.7429  -5.7640  -4.3973  -3.9960   0.0394   1.8916   2.4720   2.5142

     occupation numbers 
     1.0000   1.0000   1.0000   1.0000   0.0000   0.0000   0.0000   0.0000

          k = 0.5969 0.0000 0.0000 (  1561 PWs)   bands (ev):

   -10.4293  -9.3670  -6.5440  -2.1391  -1.1309   2.5796   3.0685   3.7342

     occupation numbers 
     1.0000   1.0000   1.0000   1.0453   0.0000   0.0000   0.0000   0.0000

          k = 0.6964 0.0578 0.0000 (  1560 PWs)   bands (ev):

   -10.3412  -9.4817  -6.5162  -2.0656  -1.2209   2.5988   3.1472   3.5505

     occupation numbers 
     1.0000   1.0000   1.0000   0.8951   0.0000   0.0000   0.0000   0.0000

          k =-0.1990-0.4627 0.0000 (  1560 PWs)   bands (ev):

   -11.0819  -8.7530  -5.9324  -2.7834  -0.4837   1.4986   3.2542   3.5807

     occupation numbers 
     1.0000   1.0000   1.0000   1.0000   0.0000   0.0000   0.0000   0.0000

          k =-0.0995-0.4049 0.0000 (  1563 PWs)   bands (ev):

   -11.7159  -8.0265  -5.0265  -3.3981   0.0503   0.2644   3.0613   3.9034

     occupation numbers 
     1.0000   1.0000   1.0000   1.0000   0.0000   0.0000   0.0000   0.0000

          k =-0.0000-0.3470 0.0000 (  1567 PWs)   bands (ev):

   -12.1617  -7.2887  -4.4145  -3.8314  -0.4709   1.0098   2.5473   4.0786

     occupation numbers 
     1.0000   1.0000   1.0000   1.0000   0.0000   0.0000   0.0000   0.0000

          k = 0.7958 0.0000 0.0000 (  1573 PWs)   bands (ev):

   -10.4810  -9.4827  -6.1087  -2.2184  -1.1710   1.4010   3.0382   4.5392

     occupation numbers 
     1.0000   1.0000   1.0000   1.0827   0.0000   0.0000   0.0000   0.0000

          k =-0.0995-0.5205 0.0000 (  1567 PWs)   bands (ev):

   -10.9503  -9.1668  -5.2544  -2.6655  -0.8347  -0.1706   4.0324   4.1320

     occupation numbers 
     1.0000   1.0000   1.0000   1.0000   0.0000   0.0000   0.0000   0.0000

          k = 0.0000-0.4627 0.0000 (  1575 PWs)   bands (ev):

   -11.4077  -8.6418  -4.6922  -3.1020  -0.8158  -0.3150   3.4411   5.0998

     occupation numbers 
     1.0000   1.0000   1.0000   1.0000   0.0000   0.0000   0.0000   0.0000

          k =-0.9948 0.0000 0.0000 (  1566 PWs)   bands (ev):

   -10.8559  -9.3974  -4.7881  -2.5830  -1.0365  -0.9350   4.3170   4.8148

     occupation numbers 
     1.0000   1.0000   1.0000   1.0004   0.0000   0.0000   0.0000   0.0000

     the Fermi energy is    -1.9256 ev

!    total energy              =     -22.73831378 Ry
     Harris-Foulkes estimate   =     -22.73831378 Ry
     estimated scf accuracy    <          1.2E-10 Ry

     The total energy is the sum of the following terms:

     one-electron contribution =     -39.49377683 Ry
     hartree contribution      =      20.98534495 Ry
     xc contribution           =     -12.21475549 Ry
     ewald contribution        =       7.98458886 Ry
     smearing contrib. (-TS)   =       0.00028472 Ry

     convergence has been achieved in   9 iterations

     negative rho (up, down):  1.683E-06 0.000E+00

     Forces acting on atoms (cartesian axes, Ry/au):

     atom    1 type  1   force =     0.00000000    0.02210998    0.00000000
     atom    2 type  1   force =     0.00000000   -0.02210998    0.00000000
     The non-local contrib.  to forces
     atom    1 type  1   force =     0.00000000    0.02356685    0.00000000
     atom    2 type  1   force =     0.00000000   -0.02361033    0.00000000
     The ionic contribution  to forces
     atom    1 type  1   force =    -0.00000000    0.06637603   -0.00000000
     atom    2 type  1   force =     0.00000000   -0.06637603   -0.00000000
     The local contribution  to forces
     atom    1 type  1   force =     0.00000000   -0.06512229    0.00000000
     atom    2 type  1   force =     0.00000000    0.06512995    0.00000000
     The core correction contribution to forces
     atom    1 type  1   force =     0.00000000   -0.00272394    0.00000000
     atom    2 type  1   force =    -0.00000000    0.00273178    0.00000000
     The Hubbard contrib.    to forces
     atom    1 type  1   force =     0.00000000    0.00000000    0.00000000
     atom    2 type  1   force =     0.00000000    0.00000000    0.00000000
     The SCF correction term to forces
     atom    1 type  1   force =    -0.00000000   -0.00000065   -0.00000000
     atom    2 type  1   force =     0.00000000    0.00000066   -0.00000000

     Total force =     0.031268     Total SCF correction =     0.000001


     Computing stress (Cartesian axis) and pressure


     negative rho (up, down):  1.683E-06 0.000E+00
          total   stress  (Ry/bohr**3)                   (kbar)     P=   12.01
   0.00008529  -0.00000000   0.00000000         12.55     -0.00      0.00
   0.00000000   0.00016504   0.00000000          0.00     24.28      0.00
   0.00000000   0.00000000  -0.00000542          0.00      0.00     -0.80

     kinetic stress (kbar)    527.26      0.00      0.00
                                0.00    525.10      0.00
                                0.00      0.00    655.74

     local   stress (kbar)  -6541.05     -0.00      0.00
                               -0.00  -6588.01      0.00
                                0.00      0.00   6824.23

     nonloc. stress (kbar)    447.50      0.00      0.00
                                0.00    454.44      0.00
                                0.00      0.00    378.69

     hartree stress (kbar)   2913.40      0.00     -0.00
                                0.00   2919.72      0.00
                               -0.00      0.00  -2842.61

     exc-cor stress (kbar)    778.16      0.00     -0.00
                                0.00    778.51     -0.00
                               -0.00     -0.00    769.06

     corecor stress (kbar)  -1036.45     -0.00     -0.00
                               -0.00  -1037.35     -0.00
                               -0.00      0.00  -1028.17

     ewald   stress (kbar)   2923.73      0.00     -0.00
                                0.00   2971.85     -0.00
                               -0.00     -0.00  -4757.74

     hubbard stress (kbar)      0.00      0.00      0.00
                                0.00      0.00      0.00
                                0.00      0.00      0.00

     london  stress (kbar)      0.00      0.00      0.00
                                0.00      0.00      0.00
                                0.00      0.00      0.00

     DFT-D3  stress (kbar)      0.00      0.00      0.00
                                0.00      0.00      0.00
                                0.00      0.00      0.00

     XDM     stress (kbar)      0.00      0.00      0.00
                                0.00      0.00      0.00
                                0.00      0.00      0.00

     dft-nl  stress (kbar)      0.00      0.00      0.00
                                0.00      0.00      0.00
                                0.00      0.00      0.00

     TS-vdW  stress (kbar)      0.00      0.00      0.00
                                0.00      0.00      0.00
                                0.00      0.00      0.00



     Writing output data file silicene.save/

     init_run     :      1.20s CPU      1.28s WALL (       1 calls)
     electrons    :     14.85s CPU     15.51s WALL (       1 calls)
     forces       :      0.72s CPU      0.76s WALL (       1 calls)
     stress       :      1.95s CPU      2.07s WALL (       1 calls)

     Called by init_run:
     wfcinit      :      0.35s CPU      0.37s WALL (       1 calls)
     wfcinit:atom :      0.01s CPU      0.01s WALL (      31 calls)
     wfcinit:wfcr :      0.30s CPU      0.32s WALL (      31 calls)
     potinit      :      0.18s CPU      0.19s WALL (       1 calls)
     hinit0       :      0.48s CPU      0.49s WALL (       1 calls)

     Called by electrons:
     c_bands      :      9.17s CPU      9.33s WALL (      10 calls)
     sum_band     :      3.55s CPU      3.89s WALL (      10 calls)
     v_of_rho     :      0.65s CPU      0.67s WALL (      10 calls)
     v_h          :      0.04s CPU      0.04s WALL (      10 calls)
     v_xc         :      0.73s CPU      0.75s WALL (      12 calls)
     newd         :      1.59s CPU      1.77s WALL (      10 calls)
     mix_rho      :      0.06s CPU      0.07s WALL (      10 calls)

     Called by c_bands:
     init_us_2    :      0.32s CPU      0.32s WALL (     713 calls)
     cegterg      :      8.17s CPU      8.30s WALL (     310 calls)

     Called by sum_band:
     sum_band:bec :      0.00s CPU      0.00s WALL (     310 calls)
     addusdens    :      1.87s CPU      2.18s WALL (      10 calls)

     Called by *egterg:
     h_psi        :      6.77s CPU      6.91s WALL (    1189 calls)
     s_psi        :      0.59s CPU      0.60s WALL (    1189 calls)
     g_psi        :      0.04s CPU      0.04s WALL (     848 calls)
     cdiaghg      :      0.13s CPU      0.14s WALL (    1127 calls)
     cegterg:over :      0.36s CPU      0.37s WALL (     848 calls)
     cegterg:upda :      0.25s CPU      0.25s WALL (     848 calls)
     cegterg:last :      0.13s CPU      0.13s WALL (     312 calls)

     Called by h_psi:
     h_psi:pot    :      6.75s CPU      6.89s WALL (    1189 calls)
     h_psi:calbec :      0.64s CPU      0.64s WALL (    1189 calls)
     vloc_psi     :      5.51s CPU      5.65s WALL (    1189 calls)
     add_vuspsi   :      0.59s CPU      0.60s WALL (    1189 calls)

     General routines
     calbec       :      0.98s CPU      0.99s WALL (    1654 calls)
     fft          :      0.45s CPU      0.46s WALL (     154 calls)
     ffts         :      0.02s CPU      0.02s WALL (      20 calls)
     fftw         :      5.75s CPU      5.88s WALL (   15612 calls)
     interpolate  :      0.04s CPU      0.04s WALL (      10 calls)

     Parallel routines

     PWSCF        :     19.25s CPU     20.18s WALL


   This run was terminated on:  21: 9: 0  22Sep2023            

=------------------------------------------------------------------------------=
   JOB DONE.
=------------------------------------------------------------------------------=
