### Running on host: LAPTOP-C0A2DPIS

     Program PWSCF v.6.4.1 starts on 22Sep2023 at 21:37:36 

     This program is part of the open-source Quantum ESPRESSO suite
     for quantum simulation of materials; please cite
         "P. Giannozzi et al., J. Phys.:Condens. Matter 21 395502 (2009);
         "P. Giannozzi et al., J. Phys.:Condens. Matter 29 465901 (2017);
          URL http://www.quantum-espresso.org", 
     in publications or presentations arising from this work. More details at
     http://www.quantum-espresso.org/quote

     Parallel version (MPI), running on     1 processors

     MPI processes distributed on     1 nodes
     Reading input from silicene_scf_kpoints-9.in

     Current dimensions of program PWSCF are:
     Max number of different atomic species (ntypx) = 10
     Max number of k-points (npk) =  40000
     Max angular momentum in pseudopotentials (lmaxx) =  3
     Message from routine read_upf::
     Pseudo file Si.pbe-n-rrkjus_psl.1.0.0.UPF has been fixed on the fly.
To avoid this message in the future, permanently fix 
 your pseudo files following these instructions: 
https://gitlab.com/QEF/q-e/blob/master/upftools/how_to_fix_upf.md

     Subspace diagonalization in iterative solution of the eigenvalue problem:
     a serial algorithm will be used

     Message from routine setup:
     DEPRECATED: symmetry with ibrav=0, use correct ibrav instead

     G-vector sticks info
     --------------------
     sticks:   dense  smooth     PW     G-vecs:    dense   smooth      PW
     Sum         859     433    147                64713    22975    4267



     bravais-lattice index     =            0
     lattice parameter (alat)  =       7.2375  a.u.
     unit-cell volume          =    1032.2806 (a.u.)^3
     number of atoms/cell      =            2
     number of atomic types    =            1
     number of electrons       =         8.00
     number of Kohn-Sham states=            8
     kinetic-energy cutoff     =      30.0000  Ry
     charge density cutoff     =     240.0000  Ry
     convergence threshold     =      4.0E-10
     mixing beta               =       0.4000
     number of iterations used =            8  plain     mixing
     Exchange-correlation      = PBE ( 1  4  3  4 0 0)

     celldm(1)=   7.237514  celldm(2)=   0.000000  celldm(3)=   0.000000
     celldm(4)=   0.000000  celldm(5)=   0.000000  celldm(6)=   0.000000

     crystal axes: (cart. coord. in units of alat)
               a(1) = (   0.502620  -0.864507   0.000000 )  
               a(2) = (   0.502620   0.864507   0.000000 )  
               a(3) = (   0.000000   0.000000   3.133218 )  

     reciprocal axes: (cart. coord. in units 2 pi/alat)
               b(1) = (  0.994786 -0.578364  0.000000 )  
               b(2) = (  0.994786  0.578364 -0.000000 )  
               b(3) = ( -0.000000  0.000000  0.319161 )  


     PseudoPot. # 1 for Si read from file:
     /home/meyn/q-e-qe-7.1/pseudo/Si.pbe-n-rrkjus_psl.1.0.0.UPF
     MD5 check sum: 56671f82560c68743c116fe4c72cdc4c
     Pseudo is Ultrasoft + core correction, Zval =  4.0
     Generated using "atomic" code by A. Dal Corso v.5.1.2
     Using radial grid of 1141 points,  6 beta functions with: 
                l(1) =   0
                l(2) =   0
                l(3) =   1
                l(4) =   1
                l(5) =   2
                l(6) =   2
     Q(r) pseudized with 0 coefficients 


     atomic species   valence    mass     pseudopotential
        Si             4.00    28.08550     Si( 1.00)

      4 Sym. Ops. (no inversion) found


                                    s                        frac. trans.

      isym =  1     identity                                     

 cryst.   s( 1) = (     1          0          0      )
                  (     0          1          0      )
                  (     0          0          1      )

 cart.    s( 1) = (  1.0000000  0.0000000  0.0000000 )
                  (  0.0000000  1.0000000  0.0000000 )
                  (  0.0000000  0.0000000  1.0000000 )


      isym =  2     180 deg rotation - cart. axis [0,1,0]        

 cryst.   s( 2) = (     0         -1          0      )
                  (    -1          0          0      )
                  (     0          0         -1      )

 cart.    s( 2) = ( -1.0000000  0.0000000  0.0000000 )
                  (  0.0000000  1.0000000  0.0000000 )
                  (  0.0000000  0.0000000 -1.0000000 )


      isym =  3     inv. 180 deg rotation - cart. axis [0,0,1]   

 cryst.   s( 3) = (     1          0          0      )
                  (     0          1          0      )
                  (     0          0         -1      )

 cart.    s( 3) = (  1.0000000  0.0000000  0.0000000 )
                  (  0.0000000  1.0000000  0.0000000 )
                  (  0.0000000  0.0000000 -1.0000000 )


      isym =  4     inv. 180 deg rotation - cart. axis [1,0,0]   

 cryst.   s( 4) = (     0         -1          0      )
                  (    -1          0          0      )
                  (     0          0          1      )

 cart.    s( 4) = ( -1.0000000  0.0000000  0.0000000 )
                  (  0.0000000  1.0000000  0.0000000 )
                  (  0.0000000  0.0000000  1.0000000 )


   Cartesian axes

     site n.     atom                  positions (alat units)
         1           Si  tau(   1) = (   0.0000000   0.0000000   0.0000000  )
         2           Si  tau(   2) = (   0.5026205   0.2939324   0.0000000  )

   Crystallographic axes

     site n.     atom                  positions (cryst. coord.)
         1           Si  tau(   1) = (  0.0000000  0.0000000  0.0000000  )
         2           Si  tau(   2) = (  0.3300000  0.6700000  0.0000000  )

     number of k points=   125  Marzari-Vanderbilt smearing, width (Ry)=  0.0147
                       cart. coord. in units 2pi/alat
        k(    1) = (   0.0000000   0.0000000   0.0000000), wk =   0.0027435
        k(    2) = (   0.0000000   0.0000000   0.0354623), wk =   0.0054870
        k(    3) = (   0.0000000   0.0000000   0.0709246), wk =   0.0054870
        k(    4) = (   0.0000000   0.0000000   0.1063869), wk =   0.0054870
        k(    5) = (   0.0000000   0.0000000   0.1418492), wk =   0.0054870
        k(    6) = (   0.1105318   0.0642627   0.0000000), wk =   0.0109739
        k(    7) = (   0.1105318   0.0642627   0.0354623), wk =   0.0219479
        k(    8) = (   0.1105318   0.0642627   0.0709246), wk =   0.0219479
        k(    9) = (   0.1105318   0.0642627   0.1063869), wk =   0.0219479
        k(   10) = (   0.1105318   0.0642627   0.1418492), wk =   0.0219479
        k(   11) = (   0.2210636   0.1285254   0.0000000), wk =   0.0109739
        k(   12) = (   0.2210636   0.1285254   0.0354623), wk =   0.0219479
        k(   13) = (   0.2210636   0.1285254   0.0709246), wk =   0.0219479
        k(   14) = (   0.2210636   0.1285254   0.1063869), wk =   0.0219479
        k(   15) = (   0.2210636   0.1285254   0.1418492), wk =   0.0219479
        k(   16) = (   0.3315955   0.1927881   0.0000000), wk =   0.0109739
        k(   17) = (   0.3315955   0.1927881   0.0354623), wk =   0.0219479
        k(   18) = (   0.3315955   0.1927881   0.0709246), wk =   0.0219479
        k(   19) = (   0.3315955   0.1927881   0.1063869), wk =   0.0219479
        k(   20) = (   0.3315955   0.1927881   0.1418492), wk =   0.0219479
        k(   21) = (   0.4421273   0.2570508   0.0000000), wk =   0.0109739
        k(   22) = (   0.4421273   0.2570508   0.0354623), wk =   0.0219479
        k(   23) = (   0.4421273   0.2570508   0.0709246), wk =   0.0219479
        k(   24) = (   0.4421273   0.2570508   0.1063869), wk =   0.0219479
        k(   25) = (   0.4421273   0.2570508   0.1418492), wk =   0.0219479
        k(   26) = (   0.2210636   0.0000000   0.0000000), wk =   0.0054870
        k(   27) = (   0.2210636   0.0000000   0.0354623), wk =   0.0109739
        k(   28) = (   0.2210636   0.0000000   0.0709246), wk =   0.0109739
        k(   29) = (   0.2210636   0.0000000   0.1063869), wk =   0.0109739
        k(   30) = (   0.2210636   0.0000000   0.1418492), wk =   0.0109739
        k(   31) = (   0.3315955   0.0642627   0.0000000), wk =   0.0109739
        k(   32) = (   0.3315955   0.0642627   0.0354623), wk =   0.0219479
        k(   33) = (   0.3315955   0.0642627   0.0709246), wk =   0.0219479
        k(   34) = (   0.3315955   0.0642627   0.1063869), wk =   0.0219479
        k(   35) = (   0.3315955   0.0642627   0.1418492), wk =   0.0219479
        k(   36) = (   0.4421273   0.1285254   0.0000000), wk =   0.0109739
        k(   37) = (   0.4421273   0.1285254   0.0354623), wk =   0.0219479
        k(   38) = (   0.4421273   0.1285254   0.0709246), wk =   0.0219479
        k(   39) = (   0.4421273   0.1285254   0.1063869), wk =   0.0219479
        k(   40) = (   0.4421273   0.1285254   0.1418492), wk =   0.0219479
        k(   41) = (   0.5526591   0.1927881   0.0000000), wk =   0.0109739
        k(   42) = (   0.5526591   0.1927881   0.0354623), wk =   0.0219479
        k(   43) = (   0.5526591   0.1927881   0.0709246), wk =   0.0219479
        k(   44) = (   0.5526591   0.1927881   0.1063869), wk =   0.0219479
        k(   45) = (   0.5526591   0.1927881   0.1418492), wk =   0.0219479
        k(   46) = (  -0.3315955  -0.3213134   0.0000000), wk =   0.0109739
        k(   47) = (  -0.3315955  -0.3213134   0.0354623), wk =   0.0219479
        k(   48) = (  -0.3315955  -0.3213134   0.0709246), wk =   0.0219479
        k(   49) = (  -0.3315955  -0.3213134   0.1063869), wk =   0.0219479
        k(   50) = (  -0.3315955  -0.3213134   0.1418492), wk =   0.0219479
        k(   51) = (  -0.2210636  -0.2570508   0.0000000), wk =   0.0109739
        k(   52) = (  -0.2210636  -0.2570508   0.0354623), wk =   0.0219479
        k(   53) = (  -0.2210636  -0.2570508   0.0709246), wk =   0.0219479
        k(   54) = (  -0.2210636  -0.2570508   0.1063869), wk =   0.0219479
        k(   55) = (  -0.2210636  -0.2570508   0.1418492), wk =   0.0219479
        k(   56) = (  -0.1105318  -0.1927881   0.0000000), wk =   0.0109739
        k(   57) = (  -0.1105318  -0.1927881   0.0354623), wk =   0.0219479
        k(   58) = (  -0.1105318  -0.1927881   0.0709246), wk =   0.0219479
        k(   59) = (  -0.1105318  -0.1927881   0.1063869), wk =   0.0219479
        k(   60) = (  -0.1105318  -0.1927881   0.1418492), wk =   0.0219479
        k(   61) = (  -0.0000000  -0.1285254   0.0000000), wk =   0.0054870
        k(   62) = (  -0.0000000  -0.1285254   0.0354623), wk =   0.0109739
        k(   63) = (  -0.0000000  -0.1285254   0.0709246), wk =   0.0109739
        k(   64) = (  -0.0000000  -0.1285254   0.1063869), wk =   0.0109739
        k(   65) = (  -0.0000000  -0.1285254   0.1418492), wk =   0.0109739
        k(   66) = (   0.4421273   0.0000000   0.0000000), wk =   0.0054870
        k(   67) = (   0.4421273   0.0000000   0.0354623), wk =   0.0109739
        k(   68) = (   0.4421273   0.0000000   0.0709246), wk =   0.0109739
        k(   69) = (   0.4421273   0.0000000   0.1063869), wk =   0.0109739
        k(   70) = (   0.4421273   0.0000000   0.1418492), wk =   0.0109739
        k(   71) = (   0.5526591   0.0642627   0.0000000), wk =   0.0109739
        k(   72) = (   0.5526591   0.0642627   0.0354623), wk =   0.0219479
        k(   73) = (   0.5526591   0.0642627   0.0709246), wk =   0.0219479
        k(   74) = (   0.5526591   0.0642627   0.1063869), wk =   0.0219479
        k(   75) = (   0.5526591   0.0642627   0.1418492), wk =   0.0219479
        k(   76) = (   0.6631909   0.1285254   0.0000000), wk =   0.0109739
        k(   77) = (   0.6631909   0.1285254   0.0354623), wk =   0.0219479
        k(   78) = (   0.6631909   0.1285254   0.0709246), wk =   0.0219479
        k(   79) = (   0.6631909   0.1285254   0.1063869), wk =   0.0219479
        k(   80) = (   0.6631909   0.1285254   0.1418492), wk =   0.0219479
        k(   81) = (  -0.2210636  -0.3855761   0.0000000), wk =   0.0109739
        k(   82) = (  -0.2210636  -0.3855761   0.0354623), wk =   0.0219479
        k(   83) = (  -0.2210636  -0.3855761   0.0709246), wk =   0.0219479
        k(   84) = (  -0.2210636  -0.3855761   0.1063869), wk =   0.0219479
        k(   85) = (  -0.2210636  -0.3855761   0.1418492), wk =   0.0219479
        k(   86) = (  -0.1105318  -0.3213134   0.0000000), wk =   0.0109739
        k(   87) = (  -0.1105318  -0.3213134   0.0354623), wk =   0.0219479
        k(   88) = (  -0.1105318  -0.3213134   0.0709246), wk =   0.0219479
        k(   89) = (  -0.1105318  -0.3213134   0.1063869), wk =   0.0219479
        k(   90) = (  -0.1105318  -0.3213134   0.1418492), wk =   0.0219479
        k(   91) = (   0.0000000  -0.2570508   0.0000000), wk =   0.0054870
        k(   92) = (   0.0000000  -0.2570508   0.0354623), wk =   0.0109739
        k(   93) = (   0.0000000  -0.2570508   0.0709246), wk =   0.0109739
        k(   94) = (   0.0000000  -0.2570508   0.1063869), wk =   0.0109739
        k(   95) = (   0.0000000  -0.2570508   0.1418492), wk =   0.0109739
        k(   96) = (   0.6631909   0.0000000   0.0000000), wk =   0.0054870
        k(   97) = (   0.6631909   0.0000000   0.0354623), wk =   0.0109739
        k(   98) = (   0.6631909   0.0000000   0.0709246), wk =   0.0109739
        k(   99) = (   0.6631909   0.0000000   0.1063869), wk =   0.0109739
        k(  100) = (   0.6631909   0.0000000   0.1418492), wk =   0.0109739
        k(  101) = (   0.7737228   0.0642627   0.0000000), wk =   0.0109739
        k(  102) = (   0.7737228   0.0642627   0.0354623), wk =   0.0219479
        k(  103) = (   0.7737228   0.0642627   0.0709246), wk =   0.0219479
        k(  104) = (   0.7737228   0.0642627   0.1063869), wk =   0.0219479
        k(  105) = (   0.7737228   0.0642627   0.1418492), wk =   0.0219479
        k(  106) = (  -0.1105318  -0.4498388   0.0000000), wk =   0.0109739
        k(  107) = (  -0.1105318  -0.4498388   0.0354623), wk =   0.0219479
        k(  108) = (  -0.1105318  -0.4498388   0.0709246), wk =   0.0219479
        k(  109) = (  -0.1105318  -0.4498388   0.1063869), wk =   0.0219479
        k(  110) = (  -0.1105318  -0.4498388   0.1418492), wk =   0.0219479
        k(  111) = (  -0.0000000  -0.3855761   0.0000000), wk =   0.0054870
        k(  112) = (  -0.0000000  -0.3855761   0.0354623), wk =   0.0109739
        k(  113) = (  -0.0000000  -0.3855761   0.0709246), wk =   0.0109739
        k(  114) = (  -0.0000000  -0.3855761   0.1063869), wk =   0.0109739
        k(  115) = (  -0.0000000  -0.3855761   0.1418492), wk =   0.0109739
        k(  116) = (   0.8842546   0.0000000   0.0000000), wk =   0.0054870
        k(  117) = (   0.8842546   0.0000000   0.0354623), wk =   0.0109739
        k(  118) = (   0.8842546   0.0000000   0.0709246), wk =   0.0109739
        k(  119) = (   0.8842546   0.0000000   0.1063869), wk =   0.0109739
        k(  120) = (   0.8842546   0.0000000   0.1418492), wk =   0.0109739
        k(  121) = (   0.0000000  -0.5141015   0.0000000), wk =   0.0054870
        k(  122) = (   0.0000000  -0.5141015   0.0354623), wk =   0.0109739
        k(  123) = (   0.0000000  -0.5141015   0.0709246), wk =   0.0109739
        k(  124) = (   0.0000000  -0.5141015   0.1063869), wk =   0.0109739
        k(  125) = (   0.0000000  -0.5141015   0.1418492), wk =   0.0109739

                       cryst. coord.
        k(    1) = (   0.0000000   0.0000000   0.0000000), wk =   0.0027435
        k(    2) = (   0.0000000   0.0000000   0.1111111), wk =   0.0054870
        k(    3) = (   0.0000000   0.0000000   0.2222222), wk =   0.0054870
        k(    4) = (   0.0000000   0.0000000   0.3333333), wk =   0.0054870
        k(    5) = (   0.0000000   0.0000000   0.4444444), wk =   0.0054870
        k(    6) = (   0.0000000   0.1111111   0.0000000), wk =   0.0109739
        k(    7) = (   0.0000000   0.1111111   0.1111111), wk =   0.0219479
        k(    8) = (   0.0000000   0.1111111   0.2222222), wk =   0.0219479
        k(    9) = (   0.0000000   0.1111111   0.3333333), wk =   0.0219479
        k(   10) = (   0.0000000   0.1111111   0.4444444), wk =   0.0219479
        k(   11) = (   0.0000000   0.2222222   0.0000000), wk =   0.0109739
        k(   12) = (   0.0000000   0.2222222   0.1111111), wk =   0.0219479
        k(   13) = (   0.0000000   0.2222222   0.2222222), wk =   0.0219479
        k(   14) = (   0.0000000   0.2222222   0.3333333), wk =   0.0219479
        k(   15) = (   0.0000000   0.2222222   0.4444444), wk =   0.0219479
        k(   16) = (   0.0000000   0.3333333   0.0000000), wk =   0.0109739
        k(   17) = (   0.0000000   0.3333333   0.1111111), wk =   0.0219479
        k(   18) = (   0.0000000   0.3333333   0.2222222), wk =   0.0219479
        k(   19) = (   0.0000000   0.3333333   0.3333333), wk =   0.0219479
        k(   20) = (   0.0000000   0.3333333   0.4444444), wk =   0.0219479
        k(   21) = (   0.0000000   0.4444444   0.0000000), wk =   0.0109739
        k(   22) = (   0.0000000   0.4444444   0.1111111), wk =   0.0219479
        k(   23) = (   0.0000000   0.4444444   0.2222222), wk =   0.0219479
        k(   24) = (   0.0000000   0.4444444   0.3333333), wk =   0.0219479
        k(   25) = (   0.0000000   0.4444444   0.4444444), wk =   0.0219479
        k(   26) = (   0.1111111   0.1111111   0.0000000), wk =   0.0054870
        k(   27) = (   0.1111111   0.1111111   0.1111111), wk =   0.0109739
        k(   28) = (   0.1111111   0.1111111   0.2222222), wk =   0.0109739
        k(   29) = (   0.1111111   0.1111111   0.3333333), wk =   0.0109739
        k(   30) = (   0.1111111   0.1111111   0.4444444), wk =   0.0109739
        k(   31) = (   0.1111111   0.2222222   0.0000000), wk =   0.0109739
        k(   32) = (   0.1111111   0.2222222   0.1111111), wk =   0.0219479
        k(   33) = (   0.1111111   0.2222222   0.2222222), wk =   0.0219479
        k(   34) = (   0.1111111   0.2222222   0.3333333), wk =   0.0219479
        k(   35) = (   0.1111111   0.2222222   0.4444444), wk =   0.0219479
        k(   36) = (   0.1111111   0.3333333   0.0000000), wk =   0.0109739
        k(   37) = (   0.1111111   0.3333333   0.1111111), wk =   0.0219479
        k(   38) = (   0.1111111   0.3333333   0.2222222), wk =   0.0219479
        k(   39) = (   0.1111111   0.3333333   0.3333333), wk =   0.0219479
        k(   40) = (   0.1111111   0.3333333   0.4444444), wk =   0.0219479
        k(   41) = (   0.1111111   0.4444444   0.0000000), wk =   0.0109739
        k(   42) = (   0.1111111   0.4444444   0.1111111), wk =   0.0219479
        k(   43) = (   0.1111111   0.4444444   0.2222222), wk =   0.0219479
        k(   44) = (   0.1111111   0.4444444   0.3333333), wk =   0.0219479
        k(   45) = (   0.1111111   0.4444444   0.4444444), wk =   0.0219479
        k(   46) = (   0.1111111  -0.4444444   0.0000000), wk =   0.0109739
        k(   47) = (   0.1111111  -0.4444444   0.1111111), wk =   0.0219479
        k(   48) = (   0.1111111  -0.4444444   0.2222222), wk =   0.0219479
        k(   49) = (   0.1111111  -0.4444444   0.3333333), wk =   0.0219479
        k(   50) = (   0.1111111  -0.4444444   0.4444444), wk =   0.0219479
        k(   51) = (   0.1111111  -0.3333333   0.0000000), wk =   0.0109739
        k(   52) = (   0.1111111  -0.3333333   0.1111111), wk =   0.0219479
        k(   53) = (   0.1111111  -0.3333333   0.2222222), wk =   0.0219479
        k(   54) = (   0.1111111  -0.3333333   0.3333333), wk =   0.0219479
        k(   55) = (   0.1111111  -0.3333333   0.4444444), wk =   0.0219479
        k(   56) = (   0.1111111  -0.2222222   0.0000000), wk =   0.0109739
        k(   57) = (   0.1111111  -0.2222222   0.1111111), wk =   0.0219479
        k(   58) = (   0.1111111  -0.2222222   0.2222222), wk =   0.0219479
        k(   59) = (   0.1111111  -0.2222222   0.3333333), wk =   0.0219479
        k(   60) = (   0.1111111  -0.2222222   0.4444444), wk =   0.0219479
        k(   61) = (   0.1111111  -0.1111111   0.0000000), wk =   0.0054870
        k(   62) = (   0.1111111  -0.1111111   0.1111111), wk =   0.0109739
        k(   63) = (   0.1111111  -0.1111111   0.2222222), wk =   0.0109739
        k(   64) = (   0.1111111  -0.1111111   0.3333333), wk =   0.0109739
        k(   65) = (   0.1111111  -0.1111111   0.4444444), wk =   0.0109739
        k(   66) = (   0.2222222   0.2222222   0.0000000), wk =   0.0054870
        k(   67) = (   0.2222222   0.2222222   0.1111111), wk =   0.0109739
        k(   68) = (   0.2222222   0.2222222   0.2222222), wk =   0.0109739
        k(   69) = (   0.2222222   0.2222222   0.3333333), wk =   0.0109739
        k(   70) = (   0.2222222   0.2222222   0.4444444), wk =   0.0109739
        k(   71) = (   0.2222222   0.3333333   0.0000000), wk =   0.0109739
        k(   72) = (   0.2222222   0.3333333   0.1111111), wk =   0.0219479
        k(   73) = (   0.2222222   0.3333333   0.2222222), wk =   0.0219479
        k(   74) = (   0.2222222   0.3333333   0.3333333), wk =   0.0219479
        k(   75) = (   0.2222222   0.3333333   0.4444444), wk =   0.0219479
        k(   76) = (   0.2222222   0.4444444   0.0000000), wk =   0.0109739
        k(   77) = (   0.2222222   0.4444444   0.1111111), wk =   0.0219479
        k(   78) = (   0.2222222   0.4444444   0.2222222), wk =   0.0219479
        k(   79) = (   0.2222222   0.4444444   0.3333333), wk =   0.0219479
        k(   80) = (   0.2222222   0.4444444   0.4444444), wk =   0.0219479
        k(   81) = (   0.2222222  -0.4444444   0.0000000), wk =   0.0109739
        k(   82) = (   0.2222222  -0.4444444   0.1111111), wk =   0.0219479
        k(   83) = (   0.2222222  -0.4444444   0.2222222), wk =   0.0219479
        k(   84) = (   0.2222222  -0.4444444   0.3333333), wk =   0.0219479
        k(   85) = (   0.2222222  -0.4444444   0.4444444), wk =   0.0219479
        k(   86) = (   0.2222222  -0.3333333   0.0000000), wk =   0.0109739
        k(   87) = (   0.2222222  -0.3333333   0.1111111), wk =   0.0219479
        k(   88) = (   0.2222222  -0.3333333   0.2222222), wk =   0.0219479
        k(   89) = (   0.2222222  -0.3333333   0.3333333), wk =   0.0219479
        k(   90) = (   0.2222222  -0.3333333   0.4444444), wk =   0.0219479
        k(   91) = (   0.2222222  -0.2222222   0.0000000), wk =   0.0054870
        k(   92) = (   0.2222222  -0.2222222   0.1111111), wk =   0.0109739
        k(   93) = (   0.2222222  -0.2222222   0.2222222), wk =   0.0109739
        k(   94) = (   0.2222222  -0.2222222   0.3333333), wk =   0.0109739
        k(   95) = (   0.2222222  -0.2222222   0.4444444), wk =   0.0109739
        k(   96) = (   0.3333333   0.3333333   0.0000000), wk =   0.0054870
        k(   97) = (   0.3333333   0.3333333   0.1111111), wk =   0.0109739
        k(   98) = (   0.3333333   0.3333333   0.2222222), wk =   0.0109739
        k(   99) = (   0.3333333   0.3333333   0.3333333), wk =   0.0109739
        k(  100) = (   0.3333333   0.3333333   0.4444444), wk =   0.0109739
        k(  101) = (   0.3333333   0.4444444   0.0000000), wk =   0.0109739
        k(  102) = (   0.3333333   0.4444444   0.1111111), wk =   0.0219479
        k(  103) = (   0.3333333   0.4444444   0.2222222), wk =   0.0219479
        k(  104) = (   0.3333333   0.4444444   0.3333333), wk =   0.0219479
        k(  105) = (   0.3333333   0.4444444   0.4444444), wk =   0.0219479
        k(  106) = (   0.3333333  -0.4444444   0.0000000), wk =   0.0109739
        k(  107) = (   0.3333333  -0.4444444   0.1111111), wk =   0.0219479
        k(  108) = (   0.3333333  -0.4444444   0.2222222), wk =   0.0219479
        k(  109) = (   0.3333333  -0.4444444   0.3333333), wk =   0.0219479
        k(  110) = (   0.3333333  -0.4444444   0.4444444), wk =   0.0219479
        k(  111) = (   0.3333333  -0.3333333   0.0000000), wk =   0.0054870
        k(  112) = (   0.3333333  -0.3333333   0.1111111), wk =   0.0109739
        k(  113) = (   0.3333333  -0.3333333   0.2222222), wk =   0.0109739
        k(  114) = (   0.3333333  -0.3333333   0.3333333), wk =   0.0109739
        k(  115) = (   0.3333333  -0.3333333   0.4444444), wk =   0.0109739
        k(  116) = (   0.4444444   0.4444444   0.0000000), wk =   0.0054870
        k(  117) = (   0.4444444   0.4444444   0.1111111), wk =   0.0109739
        k(  118) = (   0.4444444   0.4444444   0.2222222), wk =   0.0109739
        k(  119) = (   0.4444444   0.4444444   0.3333333), wk =   0.0109739
        k(  120) = (   0.4444444   0.4444444   0.4444444), wk =   0.0109739
        k(  121) = (   0.4444444  -0.4444444   0.0000000), wk =   0.0054870
        k(  122) = (   0.4444444  -0.4444444   0.1111111), wk =   0.0109739
        k(  123) = (   0.4444444  -0.4444444   0.2222222), wk =   0.0109739
        k(  124) = (   0.4444444  -0.4444444   0.3333333), wk =   0.0109739
        k(  125) = (   0.4444444  -0.4444444   0.4444444), wk =   0.0109739

     Dense  grid:    64713 G-vectors     FFT dimensions: (  36,  36, 120)

     Smooth grid:    22975 G-vectors     FFT dimensions: (  25,  25,  80)

     Dynamical RAM for                 wfc:       0.35 MB

     Dynamical RAM for     wfc (w. buffer):      44.05 MB

     Dynamical RAM for           str. fact:       0.99 MB

     Dynamical RAM for           local pot:       0.00 MB

     Dynamical RAM for          nlocal pot:       1.57 MB

     Dynamical RAM for                qrad:       1.43 MB

     Dynamical RAM for          rho,v,vnew:       6.52 MB

     Dynamical RAM for               rhoin:       2.17 MB

     Dynamical RAM for            rho*nmix:      15.80 MB

     Dynamical RAM for           G-vectors:       3.88 MB

     Dynamical RAM for          h,s,v(r/c):       0.05 MB

     Dynamical RAM for          <psi|beta>:       0.00 MB

     Dynamical RAM for                 psi:       1.40 MB

     Dynamical RAM for                hpsi:       1.40 MB

     Dynamical RAM for                spsi:       1.40 MB

     Dynamical RAM for      wfcinit/wfcrot:       0.70 MB

     Dynamical RAM for           addusdens:     185.64 MB

     Dynamical RAM for          addusforce:     188.12 MB

     Dynamical RAM for         addusstress:     198.48 MB

     Estimated static dynamical RAM per process >      84.32 MB

     Estimated max dynamical RAM per process >     282.80 MB

     Initial potential from superposition of free atoms

     starting charge    7.99888, renormalised to    8.00000

     negative rho (up, down):  3.014E-06 0.000E+00
     Starting wfcs are    8 randomized atomic wfcs

     total cpu time spent up to now is        3.2 secs

     Self-consistent Calculation

     iteration #  1     ecut=    30.00 Ry     beta= 0.40
     Davidson diagonalization with overlap
     ethr =  1.00E-02,  avg # of iterations =  4.7

     Threshold (ethr) on eigenvalues was too large:
     Diagonalizing with lowered threshold

     Davidson diagonalization with overlap
     ethr =  9.19E-04,  avg # of iterations =  1.1

     negative rho (up, down):  1.251E-06 0.000E+00

     total cpu time spent up to now is       15.4 secs

     total energy              =     -22.74121512 Ry
     Harris-Foulkes estimate   =     -22.76112088 Ry
     estimated scf accuracy    <       0.07247788 Ry

     iteration #  2     ecut=    30.00 Ry     beta= 0.40
     Davidson diagonalization with overlap
     ethr =  9.06E-04,  avg # of iterations =  1.0

     negative rho (up, down):  2.828E-06 0.000E+00

     total cpu time spent up to now is       20.3 secs

     total energy              =     -22.73783521 Ry
     Harris-Foulkes estimate   =     -22.74353956 Ry
     estimated scf accuracy    <       0.01722671 Ry

     iteration #  3     ecut=    30.00 Ry     beta= 0.40
     Davidson diagonalization with overlap
     ethr =  2.15E-04,  avg # of iterations =  3.6

     negative rho (up, down):  1.632E-06 0.000E+00

     total cpu time spent up to now is       26.0 secs

     total energy              =     -22.73966577 Ry
     Harris-Foulkes estimate   =     -22.73985878 Ry
     estimated scf accuracy    <       0.00062134 Ry

     iteration #  4     ecut=    30.00 Ry     beta= 0.40
     Davidson diagonalization with overlap
     ethr =  7.77E-06,  avg # of iterations =  5.1

     negative rho (up, down):  1.098E-06 0.000E+00

     total cpu time spent up to now is       33.1 secs

     total energy              =     -22.73975624 Ry
     Harris-Foulkes estimate   =     -22.73985127 Ry
     estimated scf accuracy    <       0.00015332 Ry

     iteration #  5     ecut=    30.00 Ry     beta= 0.40
     Davidson diagonalization with overlap
     ethr =  1.92E-06,  avg # of iterations =  3.5

     negative rho (up, down):  8.027E-07 0.000E+00

     total cpu time spent up to now is       39.2 secs

     total energy              =     -22.73978740 Ry
     Harris-Foulkes estimate   =     -22.73978945 Ry
     estimated scf accuracy    <       0.00000449 Ry

     iteration #  6     ecut=    30.00 Ry     beta= 0.40
     Davidson diagonalization with overlap
     ethr =  5.61E-08,  avg # of iterations =  2.0

     negative rho (up, down):  7.157E-07 0.000E+00

     total cpu time spent up to now is       44.6 secs

     total energy              =     -22.73978839 Ry
     Harris-Foulkes estimate   =     -22.73978834 Ry
     estimated scf accuracy    <       0.00000009 Ry

     iteration #  7     ecut=    30.00 Ry     beta= 0.40
     Davidson diagonalization with overlap
     ethr =  1.11E-09,  avg # of iterations =  2.3

     negative rho (up, down):  6.901E-07 0.000E+00

     total cpu time spent up to now is       50.2 secs

     total energy              =     -22.73978840 Ry
     Harris-Foulkes estimate   =     -22.73978842 Ry
     estimated scf accuracy    <       0.00000004 Ry

     iteration #  8     ecut=    30.00 Ry     beta= 0.40
     Davidson diagonalization with overlap
     ethr =  5.04E-10,  avg # of iterations =  1.0

     negative rho (up, down):  6.852E-07 0.000E+00

     total cpu time spent up to now is       55.3 secs

     total energy              =     -22.73978840 Ry
     Harris-Foulkes estimate   =     -22.73978840 Ry
     estimated scf accuracy    <          4.8E-09 Ry

     iteration #  9     ecut=    30.00 Ry     beta= 0.40
     Davidson diagonalization with overlap
     ethr =  5.99E-11,  avg # of iterations =  2.2

     negative rho (up, down):  6.933E-07 0.000E+00

     total cpu time spent up to now is       61.1 secs

     End of self-consistent calculation

          k = 0.0000 0.0000 0.0000 (  2867 PWs)   bands (ev):

   -13.2222  -4.8633  -3.4898  -3.3446   0.1596   0.8480   1.1121   1.3573

     occupation numbers 
     1.0000   1.0000   1.0000   1.0000   0.0000   0.0000   0.0000   0.0000

          k = 0.0000 0.0000 0.0355 (  2869 PWs)   bands (ev):

   -13.2222  -4.8633  -3.4898  -3.3446   0.1596   0.8480   1.1121   1.3674

     occupation numbers 
     1.0000   1.0000   1.0000   1.0000   0.0000   0.0000   0.0000   0.0000

          k = 0.0000 0.0000 0.0709 (  2885 PWs)   bands (ev):

   -13.2221  -4.8633  -3.4898  -3.3447   0.1596   0.8480   1.1121   1.3948

     occupation numbers 
     1.0000   1.0000   1.0000   1.0000   0.0000   0.0000   0.0000   0.0000

          k = 0.0000 0.0000 0.1064 (  2876 PWs)   bands (ev):

   -13.2222  -4.8633  -3.4898  -3.3446   0.1596   0.8480   1.1121   1.4297

     occupation numbers 
     1.0000   1.0000   1.0000   1.0000   0.0000   0.0000   0.0000   0.0000

          k = 0.0000 0.0000 0.1418 (  2858 PWs)   bands (ev):

   -13.2221  -4.8633  -3.4898  -3.3446   0.1596   0.8480   1.1121   1.4554

     occupation numbers 
     1.0000   1.0000   1.0000   1.0000   0.0000   0.0000   0.0000   0.0000

          k = 0.1105 0.0643 0.0000 (  2883 PWs)   bands (ev):

   -13.0768  -4.7214  -4.3628  -3.6793   0.4308   1.3834   1.5198   1.5770

     occupation numbers 
     1.0000   1.0000   1.0000   1.0000   0.0000   0.0000   0.0000   0.0000

          k = 0.1105 0.0643 0.0355 (  2882 PWs)   bands (ev):

   -13.0768  -4.7215  -4.3628  -3.6793   0.4308   1.3834   1.5298   1.5771

     occupation numbers 
     1.0000   1.0000   1.0000   1.0000   0.0000   0.0000   0.0000   0.0000

          k = 0.1105 0.0643 0.0709 (  2878 PWs)   bands (ev):

   -13.0768  -4.7215  -4.3628  -3.6793   0.4308   1.3835   1.5564   1.5776

     occupation numbers 
     1.0000   1.0000   1.0000   1.0000   0.0000   0.0000   0.0000   0.0000

          k = 0.1105 0.0643 0.1064 (  2866 PWs)   bands (ev):

   -13.0768  -4.7215  -4.3628  -3.6793   0.4308   1.3835   1.5756   1.5929

     occupation numbers 
     1.0000   1.0000   1.0000   1.0000   0.0000   0.0000   0.0000   0.0000

          k = 0.1105 0.0643 0.1418 (  2867 PWs)   bands (ev):

   -13.0768  -4.7215  -4.3628  -3.6793   0.4308   1.3836   1.5763   1.6177

     occupation numbers 
     1.0000   1.0000   1.0000   1.0000   0.0000   0.0000   0.0000   0.0000

          k = 0.2211 0.1285 0.0000 (  2864 PWs)   bands (ev):

   -12.6470  -6.0548  -4.3021  -4.1430  -0.1056   2.0035   2.1927   2.8962

     occupation numbers 
     1.0000   1.0000   1.0000   1.0000   0.0000   0.0000   0.0000   0.0000

          k = 0.2211 0.1285 0.0355 (  2865 PWs)   bands (ev):

   -12.6470  -6.0548  -4.3021  -4.1430  -0.1056   2.0132   2.1926   2.8962

     occupation numbers 
     1.0000   1.0000   1.0000   1.0000   0.0000   0.0000   0.0000   0.0000

          k = 0.2211 0.1285 0.0709 (  2869 PWs)   bands (ev):

   -12.6470  -6.0548  -4.3021  -4.1430  -0.1056   2.0395   2.1924   2.8962

     occupation numbers 
     1.0000   1.0000   1.0000   1.0000   0.0000   0.0000   0.0000   0.0000

          k = 0.2211 0.1285 0.1064 (  2870 PWs)   bands (ev):

   -12.6470  -6.0548  -4.3021  -4.1430  -0.1056   2.0729   2.1920   2.8962

     occupation numbers 
     1.0000   1.0000   1.0000   1.0000   0.0000   0.0000   0.0000   0.0000

          k = 0.2211 0.1285 0.1418 (  2868 PWs)   bands (ev):

   -12.6470  -6.0548  -4.3022  -4.1430  -0.1056   2.0974   2.1916   2.8962

     occupation numbers 
     1.0000   1.0000   1.0000   1.0000   0.0000   0.0000   0.0000   0.0000

          k = 0.3316 0.1928 0.0000 (  2871 PWs)   bands (ev):

   -11.9629  -7.6988  -4.5459  -3.6345  -0.6122   0.5808   2.7988   4.7396

     occupation numbers 
     1.0000   1.0000   1.0000   1.0000   0.0000   0.0000   0.0000   0.0000

          k = 0.3316 0.1928 0.0355 (  2859 PWs)   bands (ev):

   -11.9629  -7.6988  -4.5459  -3.6345  -0.6122   0.5808   2.8080   4.7397

     occupation numbers 
     1.0000   1.0000   1.0000   1.0000   0.0000   0.0000   0.0000   0.0000

          k = 0.3316 0.1928 0.0709 (  2862 PWs)   bands (ev):

   -11.9629  -7.6988  -4.5459  -3.6345  -0.6122   0.5807   2.8326   4.1922

     occupation numbers 
     1.0000   1.0000   1.0000   1.0000   0.0000   0.0000   0.0000   0.0000

          k = 0.3316 0.1928 0.1064 (  2865 PWs)   bands (ev):

   -11.9629  -7.6989  -4.5459  -3.6345  -0.6122   0.5807   2.8636   4.0341

     occupation numbers 
     1.0000   1.0000   1.0000   1.0000   0.0000   0.0000   0.0000   0.0000

          k = 0.3316 0.1928 0.1418 (  2868 PWs)   bands (ev):

   -11.9629  -7.6989  -4.5459  -3.6345  -0.6122   0.5807   2.8860   3.9462

     occupation numbers 
     1.0000   1.0000   1.0000   1.0000   0.0000   0.0000   0.0000   0.0000

          k = 0.4421 0.2571 0.0000 (  2875 PWs)   bands (ev):

   -11.1771  -8.9859  -4.7671  -2.8716  -0.8909  -0.6771   3.8489   5.1831

     occupation numbers 
     1.0000   1.0000   1.0000   1.0000   0.0000   0.0000   0.0000   0.0000

          k = 0.4421 0.2571 0.0355 (  2871 PWs)   bands (ev):

   -11.1771  -8.9859  -4.7671  -2.8716  -0.8909  -0.6771   3.8564   5.1833

     occupation numbers 
     1.0000   1.0000   1.0000   1.0000   0.0000   0.0000   0.0000   0.0000

          k = 0.4421 0.2571 0.0709 (  2865 PWs)   bands (ev):

   -11.1771  -8.9859  -4.7671  -2.8716  -0.8909  -0.6771   3.8761   5.1653

     occupation numbers 
     1.0000   1.0000   1.0000   1.0000   0.0000   0.0000   0.0000   0.0000

          k = 0.4421 0.2571 0.1064 (  2873 PWs)   bands (ev):

   -11.1771  -8.9859  -4.7671  -2.8716  -0.8909  -0.6772   3.9004   5.0926

     occupation numbers 
     1.0000   1.0000   1.0000   1.0000   0.0000   0.0000   0.0000   0.0000

          k = 0.4421 0.2571 0.1418 (  2864 PWs)   bands (ev):

   -11.1771  -8.9859  -4.7671  -2.8716  -0.8909  -0.6772   3.9175   5.0326

     occupation numbers 
     1.0000   1.0000   1.0000   1.0000   0.0000   0.0000   0.0000   0.0000

          k = 0.2211 0.0000 0.0000 (  2867 PWs)   bands (ev):

   -12.7918  -5.4664  -4.4431  -4.2533   0.8794   1.2085   1.8415   2.7180

     occupation numbers 
     1.0000   1.0000   1.0000   1.0000   0.0000   0.0000   0.0000   0.0000

          k = 0.2211 0.0000 0.0355 (  2876 PWs)   bands (ev):

   -12.7918  -5.4664  -4.4431  -4.2533   0.8794   1.2085   1.8513   2.7180

     occupation numbers 
     1.0000   1.0000   1.0000   1.0000   0.0000   0.0000   0.0000   0.0000

          k = 0.2211 0.0000 0.0709 (  2885 PWs)   bands (ev):

   -12.7918  -5.4664  -4.4432  -4.2533   0.8793   1.2085   1.8780   2.7180

     occupation numbers 
     1.0000   1.0000   1.0000   1.0000   0.0000   0.0000   0.0000   0.0000

          k = 0.2211 0.0000 0.1064 (  2881 PWs)   bands (ev):

   -12.7918  -5.4664  -4.4432  -4.2533   0.8793   1.2085   1.9120   2.7180

     occupation numbers 
     1.0000   1.0000   1.0000   1.0000   0.0000   0.0000   0.0000   0.0000

          k = 0.2211 0.0000 0.1418 (  2879 PWs)   bands (ev):

   -12.7918  -5.4664  -4.4432  -4.2533   0.8793   1.2085   1.9368   2.7180

     occupation numbers 
     1.0000   1.0000   1.0000   1.0000   0.0000   0.0000   0.0000   0.0000

          k = 0.3316 0.0643 0.0000 (  2868 PWs)   bands (ev):

   -12.2334  -6.9672  -4.8789  -3.8980   0.4774   1.2540   2.4756   2.6261

     occupation numbers 
     1.0000   1.0000   1.0000   1.0000   0.0000   0.0000   0.0000   0.0000

          k = 0.3316 0.0643 0.0355 (  2863 PWs)   bands (ev):

   -12.2334  -6.9672  -4.8789  -3.8980   0.4774   1.2540   2.4846   2.6266

     occupation numbers 
     1.0000   1.0000   1.0000   1.0000   0.0000   0.0000   0.0000   0.0000

          k = 0.3316 0.0643 0.0709 (  2867 PWs)   bands (ev):

   -12.2334  -6.9672  -4.8789  -3.8980   0.4774   1.2539   2.5085   2.6282

     occupation numbers 
     1.0000   1.0000   1.0000   1.0000   0.0000   0.0000   0.0000   0.0000

          k = 0.3316 0.0643 0.1064 (  2868 PWs)   bands (ev):

   -12.2334  -6.9672  -4.8789  -3.8980   0.4774   1.2539   2.5375   2.6315

     occupation numbers 
     1.0000   1.0000   1.0000   1.0000   0.0000   0.0000   0.0000   0.0000

          k = 0.3316 0.0643 0.1418 (  2867 PWs)   bands (ev):

   -12.2334  -6.9672  -4.8789  -3.8980   0.4774   1.2539   2.5570   2.6355

     occupation numbers 
     1.0000   1.0000   1.0000   1.0000   0.0000   0.0000   0.0000   0.0000

          k = 0.4421 0.1285 0.0000 (  2854 PWs)   bands (ev):

   -11.4604  -8.4111  -5.2734  -3.1446  -0.1420   0.1055   3.4089   4.0715

     occupation numbers 
     1.0000   1.0000   1.0000   1.0000   0.0000   0.0000   0.0000   0.0000

          k = 0.4421 0.1285 0.0355 (  2860 PWs)   bands (ev):

   -11.4604  -8.4111  -5.2734  -3.1446  -0.1421   0.1055   3.4172   4.0682

     occupation numbers 
     1.0000   1.0000   1.0000   1.0000   0.0000   0.0000   0.0000   0.0000

          k = 0.4421 0.1285 0.0709 (  2862 PWs)   bands (ev):

   -11.4604  -8.4111  -5.2734  -3.1446  -0.1421   0.1055   3.4395   4.0588

     occupation numbers 
     1.0000   1.0000   1.0000   1.0000   0.0000   0.0000   0.0000   0.0000

          k = 0.4421 0.1285 0.1064 (  2863 PWs)   bands (ev):

   -11.4604  -8.4111  -5.2734  -3.1446  -0.1421   0.1055   3.4673   4.0455

     occupation numbers 
     1.0000   1.0000   1.0000   1.0000   0.0000   0.0000   0.0000   0.0000

          k = 0.4421 0.1285 0.1418 (  2871 PWs)   bands (ev):

   -11.4604  -8.4111  -5.2734  -3.1446  -0.1421   0.1055   3.4873   4.4905

     occupation numbers 
     1.0000   1.0000   1.0000   1.0000   0.0000   0.0000   0.0000   0.0000

          k = 0.5527 0.1928 0.0000 (  2868 PWs)   bands (ev):

   -10.8766  -9.2383  -5.3951  -2.5819  -0.9380  -0.0324   3.9482   4.3238

     occupation numbers 
     1.0000   1.0000   1.0000   1.0000   0.0000   0.0000   0.0000   0.0000

          k = 0.5527 0.1928 0.0355 (  2864 PWs)   bands (ev):

   -10.8766  -9.2383  -5.3951  -2.5819  -0.9380  -0.0324   3.9477   4.3285

     occupation numbers 
     1.0000   1.0000   1.0000   1.0000   0.0000   0.0000   0.0000   0.0000

          k = 0.5527 0.1928 0.0709 (  2855 PWs)   bands (ev):

   -10.8766  -9.2383  -5.3951  -2.5819  -0.9380  -0.0324   3.9465   4.3408

     occupation numbers 
     1.0000   1.0000   1.0000   1.0000   0.0000   0.0000   0.0000   0.0000

          k = 0.5527 0.1928 0.1064 (  2848 PWs)   bands (ev):

   -10.8766  -9.2383  -5.3951  -2.5819  -0.9380  -0.0324   3.9451   4.3554

     occupation numbers 
     1.0000   1.0000   1.0000   1.0000   0.0000   0.0000   0.0000   0.0000

          k = 0.5527 0.1928 0.1418 (  2860 PWs)   bands (ev):

   -10.8766  -9.2383  -5.3951  -2.5819  -0.9380  -0.0324   3.9441   4.3653

     occupation numbers 
     1.0000   1.0000   1.0000   1.0000   0.0000   0.0000   0.0000   0.0000

          k =-0.3316-0.3213 0.0000 (  2858 PWs)   bands (ev):

   -11.4408  -8.4551  -5.2365  -3.1274  -0.1775   0.0900   3.4218   4.4012

     occupation numbers 
     1.0000   1.0000   1.0000   1.0000   0.0000   0.0000   0.0000   0.0000

          k =-0.3316-0.3213 0.0355 (  2855 PWs)   bands (ev):

   -11.4408  -8.4551  -5.2365  -3.1274  -0.1775   0.0900   3.4301   4.1204

     occupation numbers 
     1.0000   1.0000   1.0000   1.0000   0.0000   0.0000   0.0000   0.0000

          k =-0.3316-0.3213 0.0709 (  2861 PWs)   bands (ev):

   -11.4408  -8.4551  -5.2365  -3.1274  -0.1775   0.0900   3.4524   4.1111

     occupation numbers 
     1.0000   1.0000   1.0000   1.0000   0.0000   0.0000   0.0000   0.0000

          k =-0.3316-0.3213 0.1064 (  2866 PWs)   bands (ev):

   -11.4408  -8.4551  -5.2365  -3.1274  -0.1776   0.0900   3.4802   4.0978

     occupation numbers 
     1.0000   1.0000   1.0000   1.0000   0.0000   0.0000   0.0000   0.0000

          k =-0.3316-0.3213 0.1418 (  2868 PWs)   bands (ev):

   -11.4408  -8.4551  -5.2365  -3.1274  -0.1776   0.0900   3.5003   4.0871

     occupation numbers 
     1.0000   1.0000   1.0000   1.0000   0.0000   0.0000   0.0000   0.0000

          k =-0.2211-0.2571 0.0000 (  2866 PWs)   bands (ev):

   -12.2182  -7.0364  -4.8025  -3.8844   0.4554   1.2065   2.4844   2.5409

     occupation numbers 
     1.0000   1.0000   1.0000   1.0000   0.0000   0.0000   0.0000   0.0000

          k =-0.2211-0.2571 0.0355 (  2869 PWs)   bands (ev):

   -12.2182  -7.0364  -4.8025  -3.8844   0.4554   1.2065   2.4928   2.5420

     occupation numbers 
     1.0000   1.0000   1.0000   1.0000   0.0000   0.0000   0.0000   0.0000

          k =-0.2211-0.2571 0.0709 (  2867 PWs)   bands (ev):

   -12.2182  -7.0364  -4.8025  -3.8844   0.4554   1.2065   2.5126   2.5476

     occupation numbers 
     1.0000   1.0000   1.0000   1.0000   0.0000   0.0000   0.0000   0.0000

          k =-0.2211-0.2571 0.1064 (  2870 PWs)   bands (ev):

   -12.2182  -7.0364  -4.8025  -3.8845   0.4554   1.2064   2.5264   2.5661

     occupation numbers 
     1.0000   1.0000   1.0000   1.0000   0.0000   0.0000   0.0000   0.0000

          k =-0.2211-0.2571 0.1418 (  2869 PWs)   bands (ev):

   -12.2182  -7.0363  -4.8025  -3.8845   0.4554   1.2064   2.5300   2.5860

     occupation numbers 
     1.0000   1.0000   1.0000   1.0000   0.0000   0.0000   0.0000   0.0000

          k =-0.1105-0.1928 0.0000 (  2879 PWs)   bands (ev):

   -12.7826  -5.5605  -4.4350  -4.1424   0.9832   1.0232   1.8464   2.6728

     occupation numbers 
     1.0000   1.0000   1.0000   1.0000   0.0000   0.0000   0.0000   0.0000

          k =-0.1105-0.1928 0.0355 (  2874 PWs)   bands (ev):

   -12.7826  -5.5605  -4.4350  -4.1424   0.9832   1.0232   1.8562   2.6728

     occupation numbers 
     1.0000   1.0000   1.0000   1.0000   0.0000   0.0000   0.0000   0.0000

          k =-0.1105-0.1928 0.0709 (  2872 PWs)   bands (ev):

   -12.7826  -5.5605  -4.4350  -4.1424   0.9832   1.0232   1.8829   2.6728

     occupation numbers 
     1.0000   1.0000   1.0000   1.0000   0.0000   0.0000   0.0000   0.0000

          k =-0.1105-0.1928 0.1064 (  2869 PWs)   bands (ev):

   -12.7826  -5.5605  -4.4351  -4.1424   0.9832   1.0232   1.9168   2.6727

     occupation numbers 
     1.0000   1.0000   1.0000   1.0000   0.0000   0.0000   0.0000   0.0000

          k =-0.1105-0.1928 0.1418 (  2870 PWs)   bands (ev):

   -12.7826  -5.5605  -4.4351  -4.1424   0.9832   1.0232   1.9416   2.6727

     occupation numbers 
     1.0000   1.0000   1.0000   1.0000   0.0000   0.0000   0.0000   0.0000

          k =-0.0000-0.1285 0.0000 (  2869 PWs)   bands (ev):

   -13.0737  -4.7188  -4.4313  -3.6020   0.4370   1.3997   1.5097   1.5269

     occupation numbers 
     1.0000   1.0000   1.0000   1.0000   0.0000   0.0000   0.0000   0.0000

          k =-0.0000-0.1285 0.0355 (  2871 PWs)   bands (ev):

   -13.0737  -4.7188  -4.4313  -3.6020   0.4370   1.3997   1.5120   1.5346

     occupation numbers 
     1.0000   1.0000   1.0000   1.0000   0.0000   0.0000   0.0000   0.0000

          k =-0.0000-0.1285 0.0709 (  2866 PWs)   bands (ev):

   -13.0737  -4.7188  -4.4313  -3.6020   0.4370   1.3997   1.5139   1.5598

     occupation numbers 
     1.0000   1.0000   1.0000   1.0000   0.0000   0.0000   0.0000   0.0000

          k =-0.0000-0.1285 0.1064 (  2867 PWs)   bands (ev):

   -13.0737  -4.7188  -4.4313  -3.6020   0.4370   1.3997   1.5146   1.5938

     occupation numbers 
     1.0000   1.0000   1.0000   1.0000   0.0000   0.0000   0.0000   0.0000

          k =-0.0000-0.1285 0.1418 (  2858 PWs)   bands (ev):

   -13.0737  -4.7188  -4.4313  -3.6020   0.4370   1.3997   1.5148   1.6190

     occupation numbers 
     1.0000   1.0000   1.0000   1.0000   0.0000   0.0000   0.0000   0.0000

          k = 0.4421 0.0000 0.0000 (  2858 PWs)   bands (ev):

   -11.5678  -8.0180  -5.7811  -3.2486   0.1916   1.8168   2.4919   3.2606

     occupation numbers 
     1.0000   1.0000   1.0000   1.0000   0.0000   0.0000   0.0000   0.0000

          k = 0.4421 0.0000 0.0355 (  2857 PWs)   bands (ev):

   -11.5678  -8.0180  -5.7811  -3.2486   0.1916   1.8169   2.4920   3.2690

     occupation numbers 
     1.0000   1.0000   1.0000   1.0000   0.0000   0.0000   0.0000   0.0000

          k = 0.4421 0.0000 0.0709 (  2862 PWs)   bands (ev):

   -11.5678  -8.0180  -5.7811  -3.2486   0.1915   1.8169   2.4920   3.2916

     occupation numbers 
     1.0000   1.0000   1.0000   1.0000   0.0000   0.0000   0.0000   0.0000

          k = 0.4421 0.0000 0.1064 (  2864 PWs)   bands (ev):

   -11.5678  -8.0180  -5.7811  -3.2487   0.1915   1.8169   2.4920   3.3208

     occupation numbers 
     1.0000   1.0000   1.0000   1.0000   0.0000   0.0000   0.0000   0.0000

          k = 0.4421 0.0000 0.1418 (  2871 PWs)   bands (ev):

   -11.5678  -8.0180  -5.7811  -3.2487   0.1915   1.8169   2.4919   3.3426

     occupation numbers 
     1.0000   1.0000   1.0000   1.0000   0.0000   0.0000   0.0000   0.0000

          k = 0.5527 0.0643 0.0000 (  2852 PWs)   bands (ev):

   -10.7624  -9.0819  -6.2435  -2.4662  -0.8381   1.8493   2.8998   4.1109

     occupation numbers 
     1.0000   1.0000   1.0000   1.0000   0.0000   0.0000   0.0000   0.0000

          k = 0.5527 0.0643 0.0355 (  2854 PWs)   bands (ev):

   -10.7624  -9.0819  -6.2435  -2.4662  -0.8381   1.8493   2.8996   4.1123

     occupation numbers 
     1.0000   1.0000   1.0000   1.0000   0.0000   0.0000   0.0000   0.0000

          k = 0.5527 0.0643 0.0709 (  2850 PWs)   bands (ev):

   -10.7624  -9.0819  -6.2435  -2.4662  -0.8381   1.8493   2.8991   4.1157

     occupation numbers 
     1.0000   1.0000   1.0000   1.0000   0.0000   0.0000   0.0000   0.0000

          k = 0.5527 0.0643 0.1064 (  2851 PWs)   bands (ev):

   -10.7624  -9.0819  -6.2435  -2.4662  -0.8381   1.8493   2.8985   4.1191

     occupation numbers 
     1.0000   1.0000   1.0000   1.0000   0.0000   0.0000   0.0000   0.0000

          k = 0.5527 0.0643 0.1418 (  2849 PWs)   bands (ev):

   -10.7624  -9.0819  -6.2435  -2.4662  -0.8381   1.8493   2.8982   4.1212

     occupation numbers 
     1.0000   1.0000   1.0000   1.0000   0.0000   0.0000   0.0000   0.0000

          k = 0.6632 0.1285 0.0000 (  2851 PWs)   bands (ev):

   -10.7197  -9.1495  -6.2145  -2.4296  -0.8916   1.8521   2.9247   4.0371

     occupation numbers 
     1.0000   1.0000   1.0000   1.0000   0.0000   0.0000   0.0000   0.0000

          k = 0.6632 0.1285 0.0355 (  2854 PWs)   bands (ev):

   -10.7197  -9.1495  -6.2145  -2.4296  -0.8916   1.8521   2.9245   4.0376

     occupation numbers 
     1.0000   1.0000   1.0000   1.0000   0.0000   0.0000   0.0000   0.0000

          k = 0.6632 0.1285 0.0709 (  2850 PWs)   bands (ev):

   -10.7197  -9.1495  -6.2145  -2.4296  -0.8916   1.8521   2.9240   4.0387

     occupation numbers 
     1.0000   1.0000   1.0000   1.0000   0.0000   0.0000   0.0000   0.0000

          k = 0.6632 0.1285 0.1064 (  2853 PWs)   bands (ev):

   -10.7197  -9.1495  -6.2145  -2.4296  -0.8917   1.8521   2.9235   4.0399

     occupation numbers 
     1.0000   1.0000   1.0000   1.0000   0.0000   0.0000   0.0000   0.0000

          k = 0.6632 0.1285 0.1418 (  2857 PWs)   bands (ev):

   -10.7197  -9.1495  -6.2145  -2.4296  -0.8917   1.8521   2.9231   4.0406

     occupation numbers 
     1.0000   1.0000   1.0000   1.0000   0.0000   0.0000   0.0000   0.0000

          k =-0.2211-0.3856 0.0000 (  2856 PWs)   bands (ev):

   -11.5265  -8.1238  -5.7052  -3.2124   0.1149   1.9025   2.2891   3.2808

     occupation numbers 
     1.0000   1.0000   1.0000   1.0000   0.0000   0.0000   0.0000   0.0000

          k =-0.2211-0.3856 0.0355 (  2859 PWs)   bands (ev):

   -11.5265  -8.1238  -5.7052  -3.2124   0.1149   1.9025   2.2891   3.2890

     occupation numbers 
     1.0000   1.0000   1.0000   1.0000   0.0000   0.0000   0.0000   0.0000

          k =-0.2211-0.3856 0.0709 (  2864 PWs)   bands (ev):

   -11.5265  -8.1238  -5.7052  -3.2124   0.1149   1.9025   2.2891   3.3115

     occupation numbers 
     1.0000   1.0000   1.0000   1.0000   0.0000   0.0000   0.0000   0.0000

          k =-0.2211-0.3856 0.1064 (  2867 PWs)   bands (ev):

   -11.5265  -8.1238  -5.7052  -3.2124   0.1148   1.9025   2.2891   3.3405

     occupation numbers 
     1.0000   1.0000   1.0000   1.0000   0.0000   0.0000   0.0000   0.0000

          k =-0.2211-0.3856 0.1418 (  2872 PWs)   bands (ev):

   -11.5265  -8.1239  -5.7052  -3.2124   0.1148   1.9025   2.2891   3.3626

     occupation numbers 
     1.0000   1.0000   1.0000   1.0000   0.0000   0.0000   0.0000   0.0000

          k =-0.1105-0.3213 0.0000 (  2856 PWs)   bands (ev):

   -12.2063  -7.0615  -4.7985  -3.8740   0.4652   1.1929   2.4942   2.5230

     occupation numbers 
     1.0000   1.0000   1.0000   1.0000   0.0000   0.0000   0.0000   0.0000

          k =-0.1105-0.3213 0.0355 (  2861 PWs)   bands (ev):

   -12.2063  -7.0616  -4.7985  -3.8740   0.4652   1.1929   2.5034   2.5232

     occupation numbers 
     1.0000   1.0000   1.0000   1.0000   0.0000   0.0000   0.0000   0.0000

          k =-0.1105-0.3213 0.0709 (  2869 PWs)   bands (ev):

   -12.2063  -7.0616  -4.7985  -3.8741   0.4652   1.1929   2.5210   2.5311

     occupation numbers 
     1.0000   1.0000   1.0000   1.0000   0.0000   0.0000   0.0000   0.0000

          k =-0.1105-0.3213 0.1064 (  2875 PWs)   bands (ev):

   -12.2063  -7.0616  -4.7985  -3.8741   0.4652   1.1929   2.5222   2.5621

     occupation numbers 
     1.0000   1.0000   1.0000   1.0000   0.0000   0.0000   0.0000   0.0000

          k =-0.1105-0.3213 0.1418 (  2880 PWs)   bands (ev):

   -12.2063  -7.0616  -4.7985  -3.8741   0.4652   1.1928   2.5223   2.5855

     occupation numbers 
     1.0000   1.0000   1.0000   1.0000   0.0000   0.0000   0.0000   0.0000

          k = 0.0000-0.2571 0.0000 (  2861 PWs)   bands (ev):

   -12.6337  -6.1092  -4.2903  -4.1010  -0.0914   2.0111   2.1662   2.7798

     occupation numbers 
     1.0000   1.0000   1.0000   1.0000   0.0000   0.0000   0.0000   0.0000

          k = 0.0000-0.2571 0.0355 (  2864 PWs)   bands (ev):

   -12.6337  -6.1092  -4.2903  -4.1010  -0.0914   2.0208   2.1661   2.7798

     occupation numbers 
     1.0000   1.0000   1.0000   1.0000   0.0000   0.0000   0.0000   0.0000

          k = 0.0000-0.2571 0.0709 (  2872 PWs)   bands (ev):

   -12.6337  -6.1092  -4.2904  -4.1010  -0.0914   2.0472   2.1661   2.7798

     occupation numbers 
     1.0000   1.0000   1.0000   1.0000   0.0000   0.0000   0.0000   0.0000

          k = 0.0000-0.2571 0.1064 (  2875 PWs)   bands (ev):

   -12.6337  -6.1092  -4.2904  -4.1010  -0.0914   2.0807   2.1659   2.7798

     occupation numbers 
     1.0000   1.0000   1.0000   1.0000   0.0000   0.0000   0.0000   0.0000

          k = 0.0000-0.2571 0.1418 (  2870 PWs)   bands (ev):

   -12.6337  -6.1092  -4.2904  -4.1010  -0.0914   2.1052   2.1657   2.7798

     occupation numbers 
     1.0000   1.0000   1.0000   1.0000   0.0000   0.0000   0.0000   0.0000

          k = 0.6632 0.0000 0.0000 (  2826 PWs)   bands (ev):

    -9.9867  -9.8220  -6.6310  -1.7076  -1.5766   2.4614   3.5562   4.0280

     occupation numbers 
     1.0000   1.0000   1.0000   0.7294   0.2705   0.0000   0.0000   0.0000

          k = 0.6632 0.0000 0.0355 (  2837 PWs)   bands (ev):

    -9.9867  -9.8220  -6.6310  -1.7076  -1.5766   2.4613   3.5563   4.0282

     occupation numbers 
     1.0000   1.0000   1.0000   0.7295   0.2705   0.0000   0.0000   0.0000

          k = 0.6632 0.0000 0.0709 (  2844 PWs)   bands (ev):

    -9.9867  -9.8220  -6.6311  -1.7076  -1.5766   2.4611   3.5564   4.0287

     occupation numbers 
     1.0000   1.0000   1.0000   0.7295   0.2705   0.0000   0.0000   0.0000

          k = 0.6632 0.0000 0.1064 (  2826 PWs)   bands (ev):

    -9.9867  -9.8220  -6.6311  -1.7076  -1.5766   2.4608   3.5566   4.0293

     occupation numbers 
     1.0000   1.0000   1.0000   0.7294   0.2705   0.0000   0.0000   0.0000

          k = 0.6632 0.0000 0.1418 (  2826 PWs)   bands (ev):

    -9.9867  -9.8220  -6.6311  -1.7076  -1.5766   2.4606   3.5567   4.0297

     occupation numbers 
     1.0000   1.0000   1.0000   0.7294   0.2705   0.0000   0.0000   0.0000

          k = 0.7737 0.0643 0.0000 (  2849 PWs)   bands (ev):

   -10.6609  -9.2276  -6.1996  -2.3810  -0.9505   1.8196   2.9289   4.0788

     occupation numbers 
     1.0000   1.0000   1.0000   1.0000   0.0000   0.0000   0.0000   0.0000

          k = 0.7737 0.0643 0.0355 (  2858 PWs)   bands (ev):

   -10.6609  -9.2276  -6.1996  -2.3810  -0.9505   1.8196   2.9287   4.0789

     occupation numbers 
     1.0000   1.0000   1.0000   1.0000   0.0000   0.0000   0.0000   0.0000

          k = 0.7737 0.0643 0.0709 (  2860 PWs)   bands (ev):

   -10.6609  -9.2276  -6.1996  -2.3810  -0.9505   1.8196   2.9282   4.0792

     occupation numbers 
     1.0000   1.0000   1.0000   1.0000   0.0000   0.0000   0.0000   0.0000

          k = 0.7737 0.0643 0.1064 (  2853 PWs)   bands (ev):

   -10.6609  -9.2276  -6.1996  -2.3810  -0.9505   1.8196   2.9277   4.0796

     occupation numbers 
     1.0000   1.0000   1.0000   1.0000   0.0000   0.0000   0.0000   0.0000

          k = 0.7737 0.0643 0.1418 (  2853 PWs)   bands (ev):

   -10.6609  -9.2276  -6.1996  -2.3810  -0.9505   1.8196   2.9273   4.0797

     occupation numbers 
     1.0000   1.0000   1.0000   1.0000   0.0000   0.0000   0.0000   0.0000

          k =-0.1105-0.4498 0.0000 (  2862 PWs)   bands (ev):

   -11.3945  -8.5225  -5.2309  -3.0878  -0.2261   0.0759   3.4400   4.4115

     occupation numbers 
     1.0000   1.0000   1.0000   1.0000   0.0000   0.0000   0.0000   0.0000

          k =-0.1105-0.4498 0.0355 (  2866 PWs)   bands (ev):

   -11.3945  -8.5225  -5.2309  -3.0878  -0.2261   0.0758   3.4484   4.1014

     occupation numbers 
     1.0000   1.0000   1.0000   1.0000   0.0000   0.0000   0.0000   0.0000

          k =-0.1105-0.4498 0.0709 (  2863 PWs)   bands (ev):

   -11.3945  -8.5225  -5.2309  -3.0878  -0.2261   0.0759   3.4710   4.4121

     occupation numbers 
     1.0000   1.0000   1.0000   1.0000   0.0000   0.0000   0.0000   0.0000

          k =-0.1105-0.4498 0.1064 (  2866 PWs)   bands (ev):

   -11.3945  -8.5225  -5.2309  -3.0878  -0.2261   0.0759   3.4991   4.4129

     occupation numbers 
     1.0000   1.0000   1.0000   1.0000   0.0000   0.0000   0.0000   0.0000

          k =-0.1105-0.4498 0.1418 (  2869 PWs)   bands (ev):

   -11.3945  -8.5225  -5.2309  -3.0878  -0.2261   0.0758   3.5195   4.0694

     occupation numbers 
     1.0000   1.0000   1.0000   1.0000   0.0000   0.0000   0.0000   0.0000

          k =-0.0000-0.3856 0.0000 (  2885 PWs)   bands (ev):

   -11.9259  -7.7668  -4.5280  -3.6024  -0.6186   0.5341   2.8164   4.6685

     occupation numbers 
     1.0000   1.0000   1.0000   1.0000   0.0000   0.0000   0.0000   0.0000

          k =-0.0000-0.3856 0.0355 (  2876 PWs)   bands (ev):

   -11.9259  -7.7668  -4.5280  -3.6024  -0.6186   0.5341   2.8256   4.6685

     occupation numbers 
     1.0000   1.0000   1.0000   1.0000   0.0000   0.0000   0.0000   0.0000

          k =-0.0000-0.3856 0.0709 (  2868 PWs)   bands (ev):

   -11.9259  -7.7668  -4.5280  -3.6024  -0.6185   0.5341   2.8503   4.6685

     occupation numbers 
     1.0000   1.0000   1.0000   1.0000   0.0000   0.0000   0.0000   0.0000

          k =-0.0000-0.3856 0.1064 (  2865 PWs)   bands (ev):

   -11.9259  -7.7668  -4.5280  -3.6024  -0.6185   0.5340   2.8814   4.6685

     occupation numbers 
     1.0000   1.0000   1.0000   1.0000   0.0000   0.0000   0.0000   0.0000

          k =-0.0000-0.3856 0.1418 (  2868 PWs)   bands (ev):

   -11.9259  -7.7668  -4.5280  -3.6024  -0.6185   0.5340   2.9040   4.6684

     occupation numbers 
     1.0000   1.0000   1.0000   1.0000   0.0000   0.0000   0.0000   0.0000

          k = 0.8843 0.0000 0.0000 (  2880 PWs)   bands (ev):

   -10.7435  -9.4027  -5.3772  -2.4733  -1.0639  -0.0605   3.9472   4.3942

     occupation numbers 
     1.0000   1.0000   1.0000   1.0000   0.0000   0.0000   0.0000   0.0000

          k = 0.8843 0.0000 0.0355 (  2870 PWs)   bands (ev):

   -10.7435  -9.4027  -5.3772  -2.4733  -1.0639  -0.0605   3.9467   4.3992

     occupation numbers 
     1.0000   1.0000   1.0000   1.0000   0.0000   0.0000   0.0000   0.0000

          k = 0.8843 0.0000 0.0709 (  2858 PWs)   bands (ev):

   -10.7435  -9.4027  -5.3772  -2.4733  -1.0639  -0.0605   3.9455   4.4121

     occupation numbers 
     1.0000   1.0000   1.0000   1.0000   0.0000   0.0000   0.0000   0.0000

          k = 0.8843 0.0000 0.1064 (  2850 PWs)   bands (ev):

   -10.7435  -9.4027  -5.3772  -2.4733  -1.0639  -0.0605   3.9442   4.4275

     occupation numbers 
     1.0000   1.0000   1.0000   1.0000   0.0000   0.0000   0.0000   0.0000

          k = 0.8843 0.0000 0.1418 (  2855 PWs)   bands (ev):

   -10.7435  -9.4027  -5.3772  -2.4733  -1.0639  -0.0605   3.9433   4.4380

     occupation numbers 
     1.0000   1.0000   1.0000   1.0000   0.0000   0.0000   0.0000   0.0000

          k = 0.0000-0.5141 0.0000 (  2877 PWs)   bands (ev):

   -11.0776  -9.1131  -4.7602  -2.7882  -0.9083  -0.7747   3.8872   5.1944

     occupation numbers 
     1.0000   1.0000   1.0000   1.0000   0.0000   0.0000   0.0000   0.0000

          k = 0.0000-0.5141 0.0355 (  2876 PWs)   bands (ev):

   -11.0776  -9.1131  -4.7602  -2.7882  -0.9083  -0.7747   3.8948   5.1960

     occupation numbers 
     1.0000   1.0000   1.0000   1.0000   0.0000   0.0000   0.0000   0.0000

          k = 0.0000-0.5141 0.0709 (  2868 PWs)   bands (ev):

   -11.0776  -9.1131  -4.7602  -2.7882  -0.9083  -0.7747   3.9150   5.1854

     occupation numbers 
     1.0000   1.0000   1.0000   1.0000   0.0000   0.0000   0.0000   0.0000

          k = 0.0000-0.5141 0.1064 (  2871 PWs)   bands (ev):

   -11.0776  -9.1131  -4.7602  -2.7882  -0.9083  -0.7748   3.9399   5.1144

     occupation numbers 
     1.0000   1.0000   1.0000   1.0000   0.0000   0.0000   0.0000   0.0000

          k = 0.0000-0.5141 0.1418 (  2870 PWs)   bands (ev):

   -11.0776  -9.1131  -4.7602  -2.7883  -0.9083  -0.7748   3.9576   5.0526

     occupation numbers 
     1.0000   1.0000   1.0000   1.0000   0.0000   0.0000   0.0000   0.0000

     the Fermi energy is    -1.6182 ev

!    total energy              =     -22.73978840 Ry
     Harris-Foulkes estimate   =     -22.73978840 Ry
     estimated scf accuracy    <          4.0E-11 Ry

     The total energy is the sum of the following terms:

     one-electron contribution =     -39.49638355 Ry
     hartree contribution      =      20.98689840 Ry
     xc contribution           =     -12.21470718 Ry
     ewald contribution        =       7.98458886 Ry
     smearing contrib. (-TS)   =      -0.00018493 Ry

     convergence has been achieved in   9 iterations

     negative rho (up, down):  6.933E-07 0.000E+00

     Forces acting on atoms (cartesian axes, Ry/au):

     atom    1 type  1   force =     0.00000000    0.02079224    0.00000000
     atom    2 type  1   force =     0.00000000   -0.02079224    0.00000000
     The non-local contrib.  to forces
     atom    1 type  1   force =     0.00000000    0.02370120    0.00000000
     atom    2 type  1   force =     0.00000000   -0.02374381    0.00000000
     The ionic contribution  to forces
     atom    1 type  1   force =    -0.00000000    0.06637603   -0.00000000
     atom    2 type  1   force =     0.00000000   -0.06637603   -0.00000000
     The local contribution  to forces
     atom    1 type  1   force =     0.00000000   -0.06650934    0.00000000
     atom    2 type  1   force =     0.00000000    0.06651591    0.00000000
     The core correction contribution to forces
     atom    1 type  1   force =     0.00000000   -0.00278870    0.00000000
     atom    2 type  1   force =    -0.00000000    0.00280141    0.00000000
     The Hubbard contrib.    to forces
     atom    1 type  1   force =     0.00000000    0.00000000    0.00000000
     atom    2 type  1   force =     0.00000000    0.00000000    0.00000000
     The SCF correction term to forces
     atom    1 type  1   force =     0.00000000    0.00000139   -0.00000000
     atom    2 type  1   force =     0.00000000   -0.00000138   -0.00000000

     Total force =     0.029405     Total SCF correction =     0.000002


     Computing stress (Cartesian axis) and pressure


     negative rho (up, down):  6.933E-07 0.000E+00
          total   stress  (Ry/bohr**3)                   (kbar)     P=   12.45
   0.00009055   0.00000000   0.00000000         13.32      0.00      0.00
   0.00000000   0.00016394   0.00000000          0.00     24.12      0.00
  -0.00000000   0.00000000  -0.00000049         -0.00      0.00     -0.07

     kinetic stress (kbar)    527.98      0.00      0.00
                                0.00    525.31      0.00
                                0.00      0.00    656.13

     local   stress (kbar)  -6541.29     -0.00     -0.00
                               -0.00  -6588.84     -0.00
                               -0.00     -0.00   6824.15

     nonloc. stress (kbar)    447.67      0.00      0.00
                                0.00    454.56      0.00
                                0.00      0.00    378.99

     hartree stress (kbar)   2913.44      0.00      0.00
                                0.00   2919.99     -0.00
                                0.00     -0.00  -2842.69

     exc-cor stress (kbar)    778.06      0.00      0.00
                                0.00    778.42     -0.00
                                0.00     -0.00    768.95

     corecor stress (kbar)  -1036.27     -0.00     -0.00
                               -0.00  -1037.18      0.00
                               -0.00      0.00  -1027.85

     ewald   stress (kbar)   2923.73      0.00     -0.00
                                0.00   2971.85     -0.00
                               -0.00     -0.00  -4757.74

     hubbard stress (kbar)      0.00      0.00      0.00
                                0.00      0.00      0.00
                                0.00      0.00      0.00

     london  stress (kbar)      0.00      0.00      0.00
                                0.00      0.00      0.00
                                0.00      0.00      0.00

     DFT-D3  stress (kbar)      0.00      0.00      0.00
                                0.00      0.00      0.00
                                0.00      0.00      0.00

     XDM     stress (kbar)      0.00      0.00      0.00
                                0.00      0.00      0.00
                                0.00      0.00      0.00

     dft-nl  stress (kbar)      0.00      0.00      0.00
                                0.00      0.00      0.00
                                0.00      0.00      0.00

     TS-vdW  stress (kbar)      0.00      0.00      0.00
                                0.00      0.00      0.00
                                0.00      0.00      0.00



     Writing output data file silicene.save/

     init_run     :      2.60s CPU      2.69s WALL (       1 calls)
     electrons    :     56.65s CPU     57.86s WALL (       1 calls)
     forces       :      1.40s CPU      1.41s WALL (       1 calls)
     stress       :      4.23s CPU      4.35s WALL (       1 calls)

     Called by init_run:
     wfcinit      :      1.72s CPU      1.75s WALL (       1 calls)
     wfcinit:atom :      0.05s CPU      0.05s WALL (     125 calls)
     wfcinit:wfcr :      1.41s CPU      1.44s WALL (     125 calls)
     potinit      :      0.18s CPU      0.18s WALL (       1 calls)
     hinit0       :      0.52s CPU      0.52s WALL (       1 calls)

     Called by electrons:
     c_bands      :     46.45s CPU     46.91s WALL (      10 calls)
     sum_band     :      8.20s CPU      8.74s WALL (      10 calls)
     v_of_rho     :      0.61s CPU      0.63s WALL (      10 calls)
     v_h          :      0.04s CPU      0.04s WALL (      10 calls)
     v_xc         :      0.68s CPU      0.70s WALL (      12 calls)
     newd         :      1.49s CPU      1.71s WALL (      10 calls)
     mix_rho      :      0.07s CPU      0.08s WALL (      10 calls)

     Called by c_bands:
     init_us_2    :      2.33s CPU      2.34s WALL (    2875 calls)
     cegterg      :     38.97s CPU     39.31s WALL (    1250 calls)

     Called by sum_band:
     sum_band:bec :      0.02s CPU      0.02s WALL (    1250 calls)
     addusdens    :      1.68s CPU      2.18s WALL (      10 calls)

     Called by *egterg:
     h_psi        :     28.03s CPU     28.29s WALL (    4711 calls)
     s_psi        :      4.41s CPU      4.46s WALL (    4711 calls)
     g_psi        :      0.29s CPU      0.30s WALL (    3336 calls)
     cdiaghg      :      0.57s CPU      0.57s WALL (    4461 calls)
     cegterg:over :      2.78s CPU      2.80s WALL (    3336 calls)
     cegterg:upda :      1.85s CPU      1.86s WALL (    3336 calls)
     cegterg:last :      1.01s CPU      1.02s WALL (    1277 calls)

     Called by h_psi:
     h_psi:pot    :     27.87s CPU     28.12s WALL (    4711 calls)
     h_psi:calbec :      4.81s CPU      4.86s WALL (    4711 calls)
     vloc_psi     :     18.66s CPU     18.85s WALL (    4711 calls)
     add_vuspsi   :      4.37s CPU      4.39s WALL (    4711 calls)

     General routines
     calbec       :      7.25s CPU      7.31s WALL (    6586 calls)
     fft          :      0.43s CPU      0.43s WALL (     154 calls)
     ffts         :      0.01s CPU      0.01s WALL (      20 calls)
     fftw         :     17.82s CPU     17.96s WALL (   63484 calls)
     interpolate  :      0.04s CPU      0.04s WALL (      10 calls)

     Parallel routines

     PWSCF        :   1m 5.44s CPU   1m 6.90s WALL


   This run was terminated on:  21:38:43  22Sep2023            

=------------------------------------------------------------------------------=
   JOB DONE.
=------------------------------------------------------------------------------=
