
     Program PWSCF v.6.4.1 starts on 26Sep2023 at  0:55: 1 

     This program is part of the open-source Quantum ESPRESSO suite
     for quantum simulation of materials; please cite
         "P. Giannozzi et al., J. Phys.:Condens. Matter 21 395502 (2009);
         "P. Giannozzi et al., J. Phys.:Condens. Matter 29 465901 (2017);
          URL http://www.quantum-espresso.org", 
     in publications or presentations arising from this work. More details at
     http://www.quantum-espresso.org/quote

     Parallel version (MPI), running on     1 processors

     MPI processes distributed on     1 nodes
     Waiting for input...
     Reading input from standard input

     Current dimensions of program PWSCF are:
     Max number of different atomic species (ntypx) = 10
     Max number of k-points (npk) =  40000
     Max angular momentum in pseudopotentials (lmaxx) =  3

     Atomic positions and unit cell read from directory:
     ./tmp/silicene.save/

     Message from routine read_upf::
     Pseudo file Si.pbe-n-rrkjus_psl.1.0.0.UPF has been fixed on the fly.
To avoid this message in the future, permanently fix 
 your pseudo files following these instructions: 
https://gitlab.com/QEF/q-e/blob/master/upftools/how_to_fix_upf.md

     Subspace diagonalization in iterative solution of the eigenvalue problem:
     a serial algorithm will be used

     Message from routine setup:
     DEPRECATED: symmetry with ibrav=0, use correct ibrav instead

     G-vector sticks info
     --------------------
     sticks:   dense  smooth     PW     G-vecs:    dense   smooth      PW
     Sum         913     913    301                67107    67107   12857



     bravais-lattice index     =            0
     lattice parameter (alat)  =       7.3738  a.u.
     unit-cell volume          =    1067.7252 (a.u.)^3
     number of atoms/cell      =            2
     number of atomic types    =            1
     number of electrons       =         8.00
     number of Kohn-Sham states=            8
     kinetic-energy cutoff     =      70.0000  Ry
     charge density cutoff     =     240.0000  Ry
     Exchange-correlation      = PBE ( 1  4  3  4 0 0)

     celldm(1)=   7.373770  celldm(2)=   0.000000  celldm(3)=   0.000000
     celldm(4)=   0.000000  celldm(5)=   0.000000  celldm(6)=   0.000000

     crystal axes: (cart. coord. in units of alat)
               a(1) = (   0.499990  -0.866031   0.000000 )  
               a(2) = (   0.499990   0.866031   0.000000 )  
               a(3) = (   0.000000   0.000000   3.075148 )  

     reciprocal axes: (cart. coord. in units 2 pi/alat)
               b(1) = (  1.000020 -0.577346  0.000000 )  
               b(2) = (  1.000020  0.577346 -0.000000 )  
               b(3) = ( -0.000000  0.000000  0.325188 )  


     PseudoPot. # 1 for Si read from file:
     /home/meyn/q-e-qe-7.1/pseudo/Si.pbe-n-rrkjus_psl.1.0.0.UPF
     MD5 check sum: 56671f82560c68743c116fe4c72cdc4c
     Pseudo is Ultrasoft + core correction, Zval =  4.0
     Generated using "atomic" code by A. Dal Corso v.5.1.2
     Using radial grid of 1141 points,  6 beta functions with: 
                l(1) =   0
                l(2) =   0
                l(3) =   1
                l(4) =   1
                l(5) =   2
                l(6) =   2
     Q(r) pseudized with 0 coefficients 


     atomic species   valence    mass     pseudopotential
        Si             4.00    28.08550     Si( 1.00)

      4 Sym. Ops. (no inversion) found


                                    s                        frac. trans.

      isym =  1     identity                                     

 cryst.   s( 1) = (     1          0          0      )
                  (     0          1          0      )
                  (     0          0          1      )

 cart.    s( 1) = (  1.0000000  0.0000000  0.0000000 )
                  (  0.0000000  1.0000000  0.0000000 )
                  (  0.0000000  0.0000000  1.0000000 )


      isym =  2     180 deg rotation - cart. axis [0,1,0]        

 cryst.   s( 2) = (     0         -1          0      )
                  (    -1          0          0      )
                  (     0          0         -1      )

 cart.    s( 2) = ( -1.0000000  0.0000000  0.0000000 )
                  (  0.0000000  1.0000000  0.0000000 )
                  (  0.0000000  0.0000000 -1.0000000 )


      isym =  3     inv. 180 deg rotation - cart. axis [0,0,1]   

 cryst.   s( 3) = (     1          0          0      )
                  (     0          1          0      )
                  (     0          0         -1      )

 cart.    s( 3) = (  1.0000000  0.0000000  0.0000000 )
                  (  0.0000000  1.0000000  0.0000000 )
                  (  0.0000000  0.0000000 -1.0000000 )


      isym =  4     inv. 180 deg rotation - cart. axis [1,0,0]   

 cryst.   s( 4) = (     0         -1          0      )
                  (    -1          0          0      )
                  (     0          0          1      )

 cart.    s( 4) = ( -1.0000000  0.0000000  0.0000000 )
                  (  0.0000000  1.0000000  0.0000000 )
                  (  0.0000000  0.0000000  1.0000000 )


   Cartesian axes

     site n.     atom                  positions (alat units)
         1           Si  tau(   1) = (   0.4999898  -0.8631569   0.0000000  )
         2           Si  tau(   2) = (   0.4999898   0.2915762   0.0000000  )

   Crystallographic axes

     site n.     atom                  positions (cryst. coord.)
         1           Si  tau(   1) = (  0.9983405  0.0016595  0.0000000  )
         2           Si  tau(   2) = (  0.3316595  0.6683405  0.0000000  )

     number of k points=   181  Marzari-Vanderbilt smearing, width (Ry)=  0.0147
                       cart. coord. in units 2pi/alat
        k(    1) = (   0.0000000   0.0000000   0.0000000), wk =   0.0110497
        k(    2) = (   0.0071430   0.0041239   0.0000000), wk =   0.0110497
        k(    3) = (   0.0142860   0.0082478   0.0000000), wk =   0.0110497
        k(    4) = (   0.0214290   0.0123717   0.0000000), wk =   0.0110497
        k(    5) = (   0.0285720   0.0164956   0.0000000), wk =   0.0110497
        k(    6) = (   0.0357150   0.0206195   0.0000000), wk =   0.0110497
        k(    7) = (   0.0428580   0.0247434   0.0000000), wk =   0.0110497
        k(    8) = (   0.0500010   0.0288673   0.0000000), wk =   0.0110497
        k(    9) = (   0.0571440   0.0329912   0.0000000), wk =   0.0110497
        k(   10) = (   0.0642870   0.0371151   0.0000000), wk =   0.0110497
        k(   11) = (   0.0714300   0.0412390   0.0000000), wk =   0.0110497
        k(   12) = (   0.0785730   0.0453629   0.0000000), wk =   0.0110497
        k(   13) = (   0.0857160   0.0494868   0.0000000), wk =   0.0110497
        k(   14) = (   0.0928590   0.0536107   0.0000000), wk =   0.0110497
        k(   15) = (   0.1000020   0.0577346   0.0000000), wk =   0.0110497
        k(   16) = (   0.1071450   0.0618585   0.0000000), wk =   0.0110497
        k(   17) = (   0.1142880   0.0659824   0.0000000), wk =   0.0110497
        k(   18) = (   0.1214310   0.0701063   0.0000000), wk =   0.0110497
        k(   19) = (   0.1285740   0.0742302   0.0000000), wk =   0.0110497
        k(   20) = (   0.1357170   0.0783541   0.0000000), wk =   0.0110497
        k(   21) = (   0.1428600   0.0824781   0.0000000), wk =   0.0110497
        k(   22) = (   0.1500031   0.0866020   0.0000000), wk =   0.0110497
        k(   23) = (   0.1571461   0.0907259   0.0000000), wk =   0.0110497
        k(   24) = (   0.1642891   0.0948498   0.0000000), wk =   0.0110497
        k(   25) = (   0.1714321   0.0989737   0.0000000), wk =   0.0110497
        k(   26) = (   0.1785751   0.1030976   0.0000000), wk =   0.0110497
        k(   27) = (   0.1857181   0.1072215   0.0000000), wk =   0.0110497
        k(   28) = (   0.1928611   0.1113454   0.0000000), wk =   0.0110497
        k(   29) = (   0.2000041   0.1154693   0.0000000), wk =   0.0110497
        k(   30) = (   0.2071471   0.1195932   0.0000000), wk =   0.0110497
        k(   31) = (   0.2142901   0.1237171   0.0000000), wk =   0.0110497
        k(   32) = (   0.2214331   0.1278410   0.0000000), wk =   0.0110497
        k(   33) = (   0.2285761   0.1319649   0.0000000), wk =   0.0110497
        k(   34) = (   0.2357191   0.1360888   0.0000000), wk =   0.0110497
        k(   35) = (   0.2428621   0.1402127   0.0000000), wk =   0.0110497
        k(   36) = (   0.2500051   0.1443366   0.0000000), wk =   0.0110497
        k(   37) = (   0.2571481   0.1484605   0.0000000), wk =   0.0110497
        k(   38) = (   0.2642911   0.1525844   0.0000000), wk =   0.0110497
        k(   39) = (   0.2714341   0.1567083   0.0000000), wk =   0.0110497
        k(   40) = (   0.2785771   0.1608322   0.0000000), wk =   0.0110497
        k(   41) = (   0.2857201   0.1649561   0.0000000), wk =   0.0110497
        k(   42) = (   0.2928631   0.1690800   0.0000000), wk =   0.0110497
        k(   43) = (   0.3000061   0.1732039   0.0000000), wk =   0.0110497
        k(   44) = (   0.3071491   0.1773278   0.0000000), wk =   0.0110497
        k(   45) = (   0.3142921   0.1814517   0.0000000), wk =   0.0110497
        k(   46) = (   0.3214351   0.1855756   0.0000000), wk =   0.0110497
        k(   47) = (   0.3285781   0.1896995   0.0000000), wk =   0.0110497
        k(   48) = (   0.3357211   0.1938234   0.0000000), wk =   0.0110497
        k(   49) = (   0.3428641   0.1979473   0.0000000), wk =   0.0110497
        k(   50) = (   0.3500071   0.2020712   0.0000000), wk =   0.0110497
        k(   51) = (   0.3571501   0.2061951   0.0000000), wk =   0.0110497
        k(   52) = (   0.3642931   0.2103190   0.0000000), wk =   0.0110497
        k(   53) = (   0.3714361   0.2144429   0.0000000), wk =   0.0110497
        k(   54) = (   0.3785791   0.2185668   0.0000000), wk =   0.0110497
        k(   55) = (   0.3857221   0.2226907   0.0000000), wk =   0.0110497
        k(   56) = (   0.3928651   0.2268146   0.0000000), wk =   0.0110497
        k(   57) = (   0.4000081   0.2309385   0.0000000), wk =   0.0110497
        k(   58) = (   0.4071511   0.2350624   0.0000000), wk =   0.0110497
        k(   59) = (   0.4142941   0.2391863   0.0000000), wk =   0.0110497
        k(   60) = (   0.4214371   0.2433102   0.0000000), wk =   0.0110497
        k(   61) = (   0.4285801   0.2474342   0.0000000), wk =   0.0110497
        k(   62) = (   0.4357231   0.2515581   0.0000000), wk =   0.0110497
        k(   63) = (   0.4428662   0.2556820   0.0000000), wk =   0.0110497
        k(   64) = (   0.4500092   0.2598059   0.0000000), wk =   0.0110497
        k(   65) = (   0.4571522   0.2639298   0.0000000), wk =   0.0110497
        k(   66) = (   0.4642952   0.2680537   0.0000000), wk =   0.0110497
        k(   67) = (   0.4714382   0.2721776   0.0000000), wk =   0.0110497
        k(   68) = (   0.4785812   0.2763015   0.0000000), wk =   0.0110497
        k(   69) = (   0.4857242   0.2804254   0.0000000), wk =   0.0110497
        k(   70) = (   0.4928672   0.2845493   0.0000000), wk =   0.0110497
        k(   71) = (   0.5000102   0.2886732   0.0000000), wk =   0.0110497
        k(   72) = (   0.5041769   0.2814563   0.0000000), wk =   0.0110497
        k(   73) = (   0.5083437   0.2742395   0.0000000), wk =   0.0110497
        k(   74) = (   0.5125104   0.2670227   0.0000000), wk =   0.0110497
        k(   75) = (   0.5166772   0.2598059   0.0000000), wk =   0.0110497
        k(   76) = (   0.5208439   0.2525890   0.0000000), wk =   0.0110497
        k(   77) = (   0.5250107   0.2453722   0.0000000), wk =   0.0110497
        k(   78) = (   0.5291774   0.2381554   0.0000000), wk =   0.0110497
        k(   79) = (   0.5333442   0.2309385   0.0000000), wk =   0.0110497
        k(   80) = (   0.5375109   0.2237217   0.0000000), wk =   0.0110497
        k(   81) = (   0.5416777   0.2165049   0.0000000), wk =   0.0110497
        k(   82) = (   0.5458444   0.2092881   0.0000000), wk =   0.0110497
        k(   83) = (   0.5500112   0.2020712   0.0000000), wk =   0.0110497
        k(   84) = (   0.5541779   0.1948544   0.0000000), wk =   0.0110497
        k(   85) = (   0.5583447   0.1876376   0.0000000), wk =   0.0110497
        k(   86) = (   0.5625114   0.1804207   0.0000000), wk =   0.0110497
        k(   87) = (   0.5666782   0.1732039   0.0000000), wk =   0.0110497
        k(   88) = (   0.5708449   0.1659871   0.0000000), wk =   0.0110497
        k(   89) = (   0.5750117   0.1587702   0.0000000), wk =   0.0110497
        k(   90) = (   0.5791784   0.1515534   0.0000000), wk =   0.0110497
        k(   91) = (   0.5833452   0.1443366   0.0000000), wk =   0.0110497
        k(   92) = (   0.5875120   0.1371198   0.0000000), wk =   0.0110497
        k(   93) = (   0.5916787   0.1299029   0.0000000), wk =   0.0110497
        k(   94) = (   0.5958455   0.1226861   0.0000000), wk =   0.0110497
        k(   95) = (   0.6000122   0.1154693   0.0000000), wk =   0.0110497
        k(   96) = (   0.6041790   0.1082524   0.0000000), wk =   0.0110497
        k(   97) = (   0.6083457   0.1010356   0.0000000), wk =   0.0110497
        k(   98) = (   0.6125125   0.0938188   0.0000000), wk =   0.0110497
        k(   99) = (   0.6166792   0.0866020   0.0000000), wk =   0.0110497
        k(  100) = (   0.6208460   0.0793851   0.0000000), wk =   0.0110497
        k(  101) = (   0.6250127   0.0721683   0.0000000), wk =   0.0110497
        k(  102) = (   0.6291795   0.0649515   0.0000000), wk =   0.0110497
        k(  103) = (   0.6333462   0.0577346   0.0000000), wk =   0.0110497
        k(  104) = (   0.6375130   0.0505178   0.0000000), wk =   0.0110497
        k(  105) = (   0.6416797   0.0433010   0.0000000), wk =   0.0110497
        k(  106) = (   0.6458465   0.0360841   0.0000000), wk =   0.0110497
        k(  107) = (   0.6500132   0.0288673   0.0000000), wk =   0.0110497
        k(  108) = (   0.6541800   0.0216505   0.0000000), wk =   0.0110497
        k(  109) = (   0.6583467   0.0144337   0.0000000), wk =   0.0110497
        k(  110) = (   0.6625135   0.0072168   0.0000000), wk =   0.0110497
        k(  111) = (   0.6666802   0.0000000   0.0000000), wk =   0.0110497
        k(  112) = (   0.6571562   0.0000000   0.0000000), wk =   0.0110497
        k(  113) = (   0.6476322   0.0000000   0.0000000), wk =   0.0110497
        k(  114) = (   0.6381082   0.0000000   0.0000000), wk =   0.0110497
        k(  115) = (   0.6285842   0.0000000   0.0000000), wk =   0.0110497
        k(  116) = (   0.6190602   0.0000000   0.0000000), wk =   0.0110497
        k(  117) = (   0.6095362   0.0000000   0.0000000), wk =   0.0110497
        k(  118) = (   0.6000122   0.0000000   0.0000000), wk =   0.0110497
        k(  119) = (   0.5904882   0.0000000   0.0000000), wk =   0.0110497
        k(  120) = (   0.5809642   0.0000000   0.0000000), wk =   0.0110497
        k(  121) = (   0.5714402   0.0000000   0.0000000), wk =   0.0110497
        k(  122) = (   0.5619162   0.0000000   0.0000000), wk =   0.0110497
        k(  123) = (   0.5523922   0.0000000   0.0000000), wk =   0.0110497
        k(  124) = (   0.5428682   0.0000000   0.0000000), wk =   0.0110497
        k(  125) = (   0.5333442   0.0000000   0.0000000), wk =   0.0110497
        k(  126) = (   0.5238202   0.0000000   0.0000000), wk =   0.0110497
        k(  127) = (   0.5142962   0.0000000   0.0000000), wk =   0.0110497
        k(  128) = (   0.5047722   0.0000000   0.0000000), wk =   0.0110497
        k(  129) = (   0.4952482   0.0000000   0.0000000), wk =   0.0110497
        k(  130) = (   0.4857242   0.0000000   0.0000000), wk =   0.0110497
        k(  131) = (   0.4762002   0.0000000   0.0000000), wk =   0.0110497
        k(  132) = (   0.4666762   0.0000000   0.0000000), wk =   0.0110497
        k(  133) = (   0.4571522   0.0000000   0.0000000), wk =   0.0110497
        k(  134) = (   0.4476282   0.0000000   0.0000000), wk =   0.0110497
        k(  135) = (   0.4381041   0.0000000   0.0000000), wk =   0.0110497
        k(  136) = (   0.4285801   0.0000000   0.0000000), wk =   0.0110497
        k(  137) = (   0.4190561   0.0000000   0.0000000), wk =   0.0110497
        k(  138) = (   0.4095321   0.0000000   0.0000000), wk =   0.0110497
        k(  139) = (   0.4000081   0.0000000   0.0000000), wk =   0.0110497
        k(  140) = (   0.3904841   0.0000000   0.0000000), wk =   0.0110497
        k(  141) = (   0.3809601   0.0000000   0.0000000), wk =   0.0110497
        k(  142) = (   0.3714361   0.0000000   0.0000000), wk =   0.0110497
        k(  143) = (   0.3619121   0.0000000   0.0000000), wk =   0.0110497
        k(  144) = (   0.3523881   0.0000000   0.0000000), wk =   0.0110497
        k(  145) = (   0.3428641   0.0000000   0.0000000), wk =   0.0110497
        k(  146) = (   0.3333401   0.0000000   0.0000000), wk =   0.0110497
        k(  147) = (   0.3238161   0.0000000   0.0000000), wk =   0.0110497
        k(  148) = (   0.3142921   0.0000000   0.0000000), wk =   0.0110497
        k(  149) = (   0.3047681   0.0000000   0.0000000), wk =   0.0110497
        k(  150) = (   0.2952441   0.0000000   0.0000000), wk =   0.0110497
        k(  151) = (   0.2857201   0.0000000   0.0000000), wk =   0.0110497
        k(  152) = (   0.2761961   0.0000000   0.0000000), wk =   0.0110497
        k(  153) = (   0.2666721   0.0000000   0.0000000), wk =   0.0110497
        k(  154) = (   0.2571481   0.0000000   0.0000000), wk =   0.0110497
        k(  155) = (   0.2476241   0.0000000   0.0000000), wk =   0.0110497
        k(  156) = (   0.2381001   0.0000000   0.0000000), wk =   0.0110497
        k(  157) = (   0.2285761   0.0000000   0.0000000), wk =   0.0110497
        k(  158) = (   0.2190521   0.0000000   0.0000000), wk =   0.0110497
        k(  159) = (   0.2095281   0.0000000   0.0000000), wk =   0.0110497
        k(  160) = (   0.2000041   0.0000000   0.0000000), wk =   0.0110497
        k(  161) = (   0.1904801   0.0000000   0.0000000), wk =   0.0110497
        k(  162) = (   0.1809561   0.0000000   0.0000000), wk =   0.0110497
        k(  163) = (   0.1714321   0.0000000   0.0000000), wk =   0.0110497
        k(  164) = (   0.1619081   0.0000000   0.0000000), wk =   0.0110497
        k(  165) = (   0.1523841   0.0000000   0.0000000), wk =   0.0110497
        k(  166) = (   0.1428600   0.0000000   0.0000000), wk =   0.0110497
        k(  167) = (   0.1333360   0.0000000   0.0000000), wk =   0.0110497
        k(  168) = (   0.1238120   0.0000000   0.0000000), wk =   0.0110497
        k(  169) = (   0.1142880   0.0000000   0.0000000), wk =   0.0110497
        k(  170) = (   0.1047640   0.0000000   0.0000000), wk =   0.0110497
        k(  171) = (   0.0952400   0.0000000   0.0000000), wk =   0.0110497
        k(  172) = (   0.0857160   0.0000000   0.0000000), wk =   0.0110497
        k(  173) = (   0.0761920   0.0000000   0.0000000), wk =   0.0110497
        k(  174) = (   0.0666680   0.0000000   0.0000000), wk =   0.0110497
        k(  175) = (   0.0571440   0.0000000   0.0000000), wk =   0.0110497
        k(  176) = (   0.0476200   0.0000000   0.0000000), wk =   0.0110497
        k(  177) = (   0.0380960   0.0000000   0.0000000), wk =   0.0110497
        k(  178) = (   0.0285720   0.0000000   0.0000000), wk =   0.0110497
        k(  179) = (   0.0190480   0.0000000   0.0000000), wk =   0.0110497
        k(  180) = (   0.0095240   0.0000000   0.0000000), wk =   0.0110497
        k(  181) = (   0.0000000   0.0000000   0.0000000), wk =   0.0110497

                       cryst. coord.
        k(    1) = (   0.0000000   0.0000000   0.0000000), wk =   0.0110497
        k(    2) = (   0.0000000   0.0071429   0.0000000), wk =   0.0110497
        k(    3) = (   0.0000000   0.0142857   0.0000000), wk =   0.0110497
        k(    4) = (   0.0000000   0.0214286   0.0000000), wk =   0.0110497
        k(    5) = (   0.0000000   0.0285714   0.0000000), wk =   0.0110497
        k(    6) = (   0.0000000   0.0357143   0.0000000), wk =   0.0110497
        k(    7) = (   0.0000000   0.0428571   0.0000000), wk =   0.0110497
        k(    8) = (   0.0000000   0.0500000   0.0000000), wk =   0.0110497
        k(    9) = (   0.0000000   0.0571429   0.0000000), wk =   0.0110497
        k(   10) = (   0.0000000   0.0642857   0.0000000), wk =   0.0110497
        k(   11) = (   0.0000000   0.0714286   0.0000000), wk =   0.0110497
        k(   12) = (   0.0000000   0.0785714   0.0000000), wk =   0.0110497
        k(   13) = (   0.0000000   0.0857143   0.0000000), wk =   0.0110497
        k(   14) = (   0.0000000   0.0928571   0.0000000), wk =   0.0110497
        k(   15) = (   0.0000000   0.1000000   0.0000000), wk =   0.0110497
        k(   16) = (   0.0000000   0.1071429   0.0000000), wk =   0.0110497
        k(   17) = (   0.0000000   0.1142857   0.0000000), wk =   0.0110497
        k(   18) = (   0.0000000   0.1214286   0.0000000), wk =   0.0110497
        k(   19) = (   0.0000000   0.1285714   0.0000000), wk =   0.0110497
        k(   20) = (  -0.0000000   0.1357143   0.0000000), wk =   0.0110497
        k(   21) = (   0.0000000   0.1428571   0.0000000), wk =   0.0110497
        k(   22) = (   0.0000000   0.1500000   0.0000000), wk =   0.0110497
        k(   23) = (   0.0000000   0.1571429   0.0000000), wk =   0.0110497
        k(   24) = (   0.0000000   0.1642857   0.0000000), wk =   0.0110497
        k(   25) = (   0.0000000   0.1714286   0.0000000), wk =   0.0110497
        k(   26) = (   0.0000000   0.1785714   0.0000000), wk =   0.0110497
        k(   27) = (   0.0000000   0.1857143   0.0000000), wk =   0.0110497
        k(   28) = (   0.0000000   0.1928571   0.0000000), wk =   0.0110497
        k(   29) = (   0.0000000   0.2000000   0.0000000), wk =   0.0110497
        k(   30) = (  -0.0000000   0.2071429   0.0000000), wk =   0.0110497
        k(   31) = (   0.0000000   0.2142857   0.0000000), wk =   0.0110497
        k(   32) = (   0.0000000   0.2214286   0.0000000), wk =   0.0110497
        k(   33) = (   0.0000000   0.2285714   0.0000000), wk =   0.0110497
        k(   34) = (   0.0000000   0.2357143   0.0000000), wk =   0.0110497
        k(   35) = (   0.0000000   0.2428571   0.0000000), wk =   0.0110497
        k(   36) = (   0.0000000   0.2500000   0.0000000), wk =   0.0110497
        k(   37) = (   0.0000000   0.2571429   0.0000000), wk =   0.0110497
        k(   38) = (   0.0000000   0.2642857   0.0000000), wk =   0.0110497
        k(   39) = (  -0.0000000   0.2714286   0.0000000), wk =   0.0110497
        k(   40) = (  -0.0000000   0.2785714   0.0000000), wk =   0.0110497
        k(   41) = (   0.0000000   0.2857143   0.0000000), wk =   0.0110497
        k(   42) = (   0.0000000   0.2928571   0.0000000), wk =   0.0110497
        k(   43) = (   0.0000000   0.3000000   0.0000000), wk =   0.0110497
        k(   44) = (   0.0000000   0.3071429   0.0000000), wk =   0.0110497
        k(   45) = (   0.0000000   0.3142857   0.0000000), wk =   0.0110497
        k(   46) = (   0.0000000   0.3214286   0.0000000), wk =   0.0110497
        k(   47) = (   0.0000000   0.3285714   0.0000000), wk =   0.0110497
        k(   48) = (   0.0000000   0.3357143   0.0000000), wk =   0.0110497
        k(   49) = (   0.0000000   0.3428571   0.0000000), wk =   0.0110497
        k(   50) = (   0.0000000   0.3500000   0.0000000), wk =   0.0110497
        k(   51) = (   0.0000000   0.3571429   0.0000000), wk =   0.0110497
        k(   52) = (   0.0000000   0.3642857   0.0000000), wk =   0.0110497
        k(   53) = (   0.0000000   0.3714286   0.0000000), wk =   0.0110497
        k(   54) = (   0.0000000   0.3785714   0.0000000), wk =   0.0110497
        k(   55) = (   0.0000000   0.3857143   0.0000000), wk =   0.0110497
        k(   56) = (   0.0000000   0.3928571   0.0000000), wk =   0.0110497
        k(   57) = (   0.0000000   0.4000000   0.0000000), wk =   0.0110497
        k(   58) = (   0.0000000   0.4071429   0.0000000), wk =   0.0110497
        k(   59) = (  -0.0000000   0.4142857   0.0000000), wk =   0.0110497
        k(   60) = (  -0.0000000   0.4214286   0.0000000), wk =   0.0110497
        k(   61) = (   0.0000000   0.4285714   0.0000000), wk =   0.0110497
        k(   62) = (   0.0000000   0.4357143   0.0000000), wk =   0.0110497
        k(   63) = (   0.0000000   0.4428571   0.0000000), wk =   0.0110497
        k(   64) = (   0.0000000   0.4500000   0.0000000), wk =   0.0110497
        k(   65) = (   0.0000000   0.4571429   0.0000000), wk =   0.0110497
        k(   66) = (   0.0000000   0.4642857   0.0000000), wk =   0.0110497
        k(   67) = (   0.0000000   0.4714286   0.0000000), wk =   0.0110497
        k(   68) = (   0.0000000   0.4785714   0.0000000), wk =   0.0110497
        k(   69) = (   0.0000000   0.4857143   0.0000000), wk =   0.0110497
        k(   70) = (   0.0000000   0.4928571   0.0000000), wk =   0.0110497
        k(   71) = (   0.0000000   0.5000000   0.0000000), wk =   0.0110497
        k(   72) = (   0.0083333   0.4958333   0.0000000), wk =   0.0110497
        k(   73) = (   0.0166667   0.4916667   0.0000000), wk =   0.0110497
        k(   74) = (   0.0250000   0.4875000   0.0000000), wk =   0.0110497
        k(   75) = (   0.0333333   0.4833333   0.0000000), wk =   0.0110497
        k(   76) = (   0.0416667   0.4791667   0.0000000), wk =   0.0110497
        k(   77) = (   0.0500000   0.4750000   0.0000000), wk =   0.0110497
        k(   78) = (   0.0583333   0.4708333   0.0000000), wk =   0.0110497
        k(   79) = (   0.0666667   0.4666667   0.0000000), wk =   0.0110497
        k(   80) = (   0.0750000   0.4625000   0.0000000), wk =   0.0110497
        k(   81) = (   0.0833333   0.4583333   0.0000000), wk =   0.0110497
        k(   82) = (   0.0916667   0.4541667   0.0000000), wk =   0.0110497
        k(   83) = (   0.1000000   0.4500000   0.0000000), wk =   0.0110497
        k(   84) = (   0.1083333   0.4458333   0.0000000), wk =   0.0110497
        k(   85) = (   0.1166667   0.4416667   0.0000000), wk =   0.0110497
        k(   86) = (   0.1250000   0.4375000   0.0000000), wk =   0.0110497
        k(   87) = (   0.1333333   0.4333333   0.0000000), wk =   0.0110497
        k(   88) = (   0.1416667   0.4291667   0.0000000), wk =   0.0110497
        k(   89) = (   0.1500000   0.4250000   0.0000000), wk =   0.0110497
        k(   90) = (   0.1583333   0.4208333   0.0000000), wk =   0.0110497
        k(   91) = (   0.1666667   0.4166667   0.0000000), wk =   0.0110497
        k(   92) = (   0.1750000   0.4125000   0.0000000), wk =   0.0110497
        k(   93) = (   0.1833333   0.4083333   0.0000000), wk =   0.0110497
        k(   94) = (   0.1916667   0.4041667   0.0000000), wk =   0.0110497
        k(   95) = (   0.2000000   0.4000000   0.0000000), wk =   0.0110497
        k(   96) = (   0.2083333   0.3958333   0.0000000), wk =   0.0110497
        k(   97) = (   0.2166667   0.3916667   0.0000000), wk =   0.0110497
        k(   98) = (   0.2250000   0.3875000   0.0000000), wk =   0.0110497
        k(   99) = (   0.2333333   0.3833333   0.0000000), wk =   0.0110497
        k(  100) = (   0.2416667   0.3791667   0.0000000), wk =   0.0110497
        k(  101) = (   0.2500000   0.3750000   0.0000000), wk =   0.0110497
        k(  102) = (   0.2583333   0.3708333   0.0000000), wk =   0.0110497
        k(  103) = (   0.2666667   0.3666667   0.0000000), wk =   0.0110497
        k(  104) = (   0.2750000   0.3625000   0.0000000), wk =   0.0110497
        k(  105) = (   0.2833333   0.3583333   0.0000000), wk =   0.0110497
        k(  106) = (   0.2916667   0.3541667   0.0000000), wk =   0.0110497
        k(  107) = (   0.3000000   0.3500000   0.0000000), wk =   0.0110497
        k(  108) = (   0.3083333   0.3458333   0.0000000), wk =   0.0110497
        k(  109) = (   0.3166667   0.3416667   0.0000000), wk =   0.0110497
        k(  110) = (   0.3250000   0.3375000   0.0000000), wk =   0.0110497
        k(  111) = (   0.3333333   0.3333333   0.0000000), wk =   0.0110497
        k(  112) = (   0.3285714   0.3285714   0.0000000), wk =   0.0110497
        k(  113) = (   0.3238095   0.3238095   0.0000000), wk =   0.0110497
        k(  114) = (   0.3190476   0.3190476   0.0000000), wk =   0.0110497
        k(  115) = (   0.3142857   0.3142857   0.0000000), wk =   0.0110497
        k(  116) = (   0.3095238   0.3095238   0.0000000), wk =   0.0110497
        k(  117) = (   0.3047619   0.3047619   0.0000000), wk =   0.0110497
        k(  118) = (   0.3000000   0.3000000   0.0000000), wk =   0.0110497
        k(  119) = (   0.2952381   0.2952381   0.0000000), wk =   0.0110497
        k(  120) = (   0.2904762   0.2904762   0.0000000), wk =   0.0110497
        k(  121) = (   0.2857143   0.2857143   0.0000000), wk =   0.0110497
        k(  122) = (   0.2809524   0.2809524   0.0000000), wk =   0.0110497
        k(  123) = (   0.2761905   0.2761905   0.0000000), wk =   0.0110497
        k(  124) = (   0.2714286   0.2714286   0.0000000), wk =   0.0110497
        k(  125) = (   0.2666667   0.2666667   0.0000000), wk =   0.0110497
        k(  126) = (   0.2619048   0.2619048   0.0000000), wk =   0.0110497
        k(  127) = (   0.2571429   0.2571429   0.0000000), wk =   0.0110497
        k(  128) = (   0.2523810   0.2523810   0.0000000), wk =   0.0110497
        k(  129) = (   0.2476190   0.2476190   0.0000000), wk =   0.0110497
        k(  130) = (   0.2428571   0.2428571   0.0000000), wk =   0.0110497
        k(  131) = (   0.2380952   0.2380952   0.0000000), wk =   0.0110497
        k(  132) = (   0.2333333   0.2333333   0.0000000), wk =   0.0110497
        k(  133) = (   0.2285714   0.2285714   0.0000000), wk =   0.0110497
        k(  134) = (   0.2238095   0.2238095   0.0000000), wk =   0.0110497
        k(  135) = (   0.2190476   0.2190476   0.0000000), wk =   0.0110497
        k(  136) = (   0.2142857   0.2142857   0.0000000), wk =   0.0110497
        k(  137) = (   0.2095238   0.2095238   0.0000000), wk =   0.0110497
        k(  138) = (   0.2047619   0.2047619   0.0000000), wk =   0.0110497
        k(  139) = (   0.2000000   0.2000000   0.0000000), wk =   0.0110497
        k(  140) = (   0.1952381   0.1952381   0.0000000), wk =   0.0110497
        k(  141) = (   0.1904762   0.1904762   0.0000000), wk =   0.0110497
        k(  142) = (   0.1857143   0.1857143   0.0000000), wk =   0.0110497
        k(  143) = (   0.1809524   0.1809524   0.0000000), wk =   0.0110497
        k(  144) = (   0.1761905   0.1761905   0.0000000), wk =   0.0110497
        k(  145) = (   0.1714286   0.1714286   0.0000000), wk =   0.0110497
        k(  146) = (   0.1666667   0.1666667   0.0000000), wk =   0.0110497
        k(  147) = (   0.1619048   0.1619048   0.0000000), wk =   0.0110497
        k(  148) = (   0.1571429   0.1571429   0.0000000), wk =   0.0110497
        k(  149) = (   0.1523810   0.1523810   0.0000000), wk =   0.0110497
        k(  150) = (   0.1476190   0.1476190   0.0000000), wk =   0.0110497
        k(  151) = (   0.1428571   0.1428571   0.0000000), wk =   0.0110497
        k(  152) = (   0.1380952   0.1380952   0.0000000), wk =   0.0110497
        k(  153) = (   0.1333333   0.1333333   0.0000000), wk =   0.0110497
        k(  154) = (   0.1285714   0.1285714   0.0000000), wk =   0.0110497
        k(  155) = (   0.1238095   0.1238095   0.0000000), wk =   0.0110497
        k(  156) = (   0.1190476   0.1190476   0.0000000), wk =   0.0110497
        k(  157) = (   0.1142857   0.1142857   0.0000000), wk =   0.0110497
        k(  158) = (   0.1095238   0.1095238   0.0000000), wk =   0.0110497
        k(  159) = (   0.1047619   0.1047619   0.0000000), wk =   0.0110497
        k(  160) = (   0.1000000   0.1000000   0.0000000), wk =   0.0110497
        k(  161) = (   0.0952381   0.0952381   0.0000000), wk =   0.0110497
        k(  162) = (   0.0904762   0.0904762   0.0000000), wk =   0.0110497
        k(  163) = (   0.0857143   0.0857143   0.0000000), wk =   0.0110497
        k(  164) = (   0.0809524   0.0809524   0.0000000), wk =   0.0110497
        k(  165) = (   0.0761905   0.0761905   0.0000000), wk =   0.0110497
        k(  166) = (   0.0714286   0.0714286   0.0000000), wk =   0.0110497
        k(  167) = (   0.0666667   0.0666667   0.0000000), wk =   0.0110497
        k(  168) = (   0.0619048   0.0619048   0.0000000), wk =   0.0110497
        k(  169) = (   0.0571429   0.0571429   0.0000000), wk =   0.0110497
        k(  170) = (   0.0523810   0.0523810   0.0000000), wk =   0.0110497
        k(  171) = (   0.0476190   0.0476190   0.0000000), wk =   0.0110497
        k(  172) = (   0.0428571   0.0428571   0.0000000), wk =   0.0110497
        k(  173) = (   0.0380952   0.0380952   0.0000000), wk =   0.0110497
        k(  174) = (   0.0333333   0.0333333   0.0000000), wk =   0.0110497
        k(  175) = (   0.0285714   0.0285714   0.0000000), wk =   0.0110497
        k(  176) = (   0.0238095   0.0238095   0.0000000), wk =   0.0110497
        k(  177) = (   0.0190476   0.0190476   0.0000000), wk =   0.0110497
        k(  178) = (   0.0142857   0.0142857   0.0000000), wk =   0.0110497
        k(  179) = (   0.0095238   0.0095238   0.0000000), wk =   0.0110497
        k(  180) = (   0.0047619   0.0047619   0.0000000), wk =   0.0110497
        k(  181) = (   0.0000000   0.0000000   0.0000000), wk =   0.0110497

     Dense  grid:    67107 G-vectors     FFT dimensions: (  40,  40, 120)

     Dynamical RAM for                 wfc:       1.29 MB

     Dynamical RAM for     wfc (w. buffer):       1.29 MB

     Dynamical RAM for           str. fact:       1.02 MB

     Dynamical RAM for           local pot:       0.00 MB

     Dynamical RAM for          nlocal pot:       5.80 MB

     Dynamical RAM for                qrad:       1.46 MB

     Dynamical RAM for          rho,v,vnew:       7.47 MB

     Dynamical RAM for           G-vectors:       4.35 MB

     Dynamical RAM for          h,s,v(r/c):       0.05 MB

     Dynamical RAM for          <psi|beta>:       0.00 MB

     Dynamical RAM for                 psi:       5.16 MB

     Dynamical RAM for                hpsi:       5.16 MB

     Dynamical RAM for                spsi:       5.16 MB

     Dynamical RAM for      wfcinit/wfcrot:       2.58 MB

     Dynamical RAM for           addusdens:     192.51 MB

     Estimated static dynamical RAM per process >      30.76 MB

     Estimated max dynamical RAM per process >     223.27 MB

     The potential is recalculated from file :
     ./tmp/silicene.save/charge-density


     negative rho (up, down):  2.048E-06 0.000E+00
     Starting wfcs are    8 randomized atomic wfcs

     Band Structure Calculation
     Davidson diagonalization with overlap

     Computing kpt #:     1
     total cpu time spent up to now is        2.8 secs

     Computing kpt #:     2
     total cpu time spent up to now is        4.0 secs

     Computing kpt #:     3
     total cpu time spent up to now is        5.0 secs

     Computing kpt #:     4
     total cpu time spent up to now is        6.4 secs

     Computing kpt #:     5
     total cpu time spent up to now is        7.4 secs

     Computing kpt #:     6
     total cpu time spent up to now is        8.4 secs

     Computing kpt #:     7
     total cpu time spent up to now is        9.4 secs

     Computing kpt #:     8
     total cpu time spent up to now is       10.6 secs

     Computing kpt #:     9
     total cpu time spent up to now is       11.7 secs

     Computing kpt #:    10
     total cpu time spent up to now is       12.8 secs

     Computing kpt #:    11
     total cpu time spent up to now is       13.9 secs

     Computing kpt #:    12
     total cpu time spent up to now is       15.0 secs

     Computing kpt #:    13
     total cpu time spent up to now is       16.0 secs

     Computing kpt #:    14
     total cpu time spent up to now is       17.1 secs

     Computing kpt #:    15
     total cpu time spent up to now is       18.3 secs

     Computing kpt #:    16
     total cpu time spent up to now is       19.5 secs

     Computing kpt #:    17
     total cpu time spent up to now is       20.8 secs

     Computing kpt #:    18
     total cpu time spent up to now is       22.1 secs

     Computing kpt #:    19
     total cpu time spent up to now is       23.4 secs

     Computing kpt #:    20
     total cpu time spent up to now is       24.7 secs

     Computing kpt #:    21
     total cpu time spent up to now is       26.0 secs

     Computing kpt #:    22
     total cpu time spent up to now is       27.4 secs

     Computing kpt #:    23
     total cpu time spent up to now is       28.8 secs

     Computing kpt #:    24
     total cpu time spent up to now is       30.3 secs

     Computing kpt #:    25
     total cpu time spent up to now is       31.8 secs

     Computing kpt #:    26
     total cpu time spent up to now is       33.4 secs

     Computing kpt #:    27
     total cpu time spent up to now is       35.1 secs

     Computing kpt #:    28
     total cpu time spent up to now is       36.9 secs

     Computing kpt #:    29
     total cpu time spent up to now is       39.0 secs

     Computing kpt #:    30
     total cpu time spent up to now is       40.8 secs

     Computing kpt #:    31
     total cpu time spent up to now is       42.5 secs

     Computing kpt #:    32
     total cpu time spent up to now is       44.3 secs

     Computing kpt #:    33
     total cpu time spent up to now is       46.0 secs

     Computing kpt #:    34
     total cpu time spent up to now is       47.6 secs

     Computing kpt #:    35
     total cpu time spent up to now is       49.1 secs

     Computing kpt #:    36
     total cpu time spent up to now is       50.7 secs

     Computing kpt #:    37
     total cpu time spent up to now is       52.2 secs

     Computing kpt #:    38
     total cpu time spent up to now is       53.7 secs

     Computing kpt #:    39
     total cpu time spent up to now is       55.3 secs

     Computing kpt #:    40
     total cpu time spent up to now is       56.7 secs

     Computing kpt #:    41
     total cpu time spent up to now is       58.2 secs

     Computing kpt #:    42
     total cpu time spent up to now is       59.9 secs

     Computing kpt #:    43
     total cpu time spent up to now is       61.4 secs

     Computing kpt #:    44
     total cpu time spent up to now is       63.1 secs

     Computing kpt #:    45
     total cpu time spent up to now is       64.5 secs

     Computing kpt #:    46
     total cpu time spent up to now is       66.4 secs

     Computing kpt #:    47
     total cpu time spent up to now is       68.2 secs

     Computing kpt #:    48
     total cpu time spent up to now is       70.3 secs

     Computing kpt #:    49
     total cpu time spent up to now is       72.1 secs

     Computing kpt #:    50
     total cpu time spent up to now is       73.9 secs

     Computing kpt #:    51
     total cpu time spent up to now is       75.6 secs

     Computing kpt #:    52
     total cpu time spent up to now is       77.3 secs

     Computing kpt #:    53
     total cpu time spent up to now is       79.1 secs

     Computing kpt #:    54
     total cpu time spent up to now is       80.7 secs

     Computing kpt #:    55
     total cpu time spent up to now is       82.4 secs

     Computing kpt #:    56
     total cpu time spent up to now is       84.1 secs

     Computing kpt #:    57
     total cpu time spent up to now is       85.8 secs

     Computing kpt #:    58
     total cpu time spent up to now is       87.6 secs

     Computing kpt #:    59
     total cpu time spent up to now is       89.5 secs

     Computing kpt #:    60
     total cpu time spent up to now is       92.0 secs

     Computing kpt #:    61
     total cpu time spent up to now is       93.9 secs

     Computing kpt #:    62
     total cpu time spent up to now is       95.9 secs

     Computing kpt #:    63
     total cpu time spent up to now is       97.6 secs

     Computing kpt #:    64
     total cpu time spent up to now is       99.3 secs

     Computing kpt #:    65
     total cpu time spent up to now is      100.9 secs

     Computing kpt #:    66
     total cpu time spent up to now is      102.3 secs

     Computing kpt #:    67
     total cpu time spent up to now is      103.7 secs

     Computing kpt #:    68
     total cpu time spent up to now is      105.1 secs

     Computing kpt #:    69
     total cpu time spent up to now is      106.5 secs

     Computing kpt #:    70
     total cpu time spent up to now is      107.9 secs

     Computing kpt #:    71
     total cpu time spent up to now is      109.2 secs

     Computing kpt #:    72
     total cpu time spent up to now is      110.6 secs

     Computing kpt #:    73
     total cpu time spent up to now is      111.9 secs

     Computing kpt #:    74
     total cpu time spent up to now is      113.4 secs

     Computing kpt #:    75
     total cpu time spent up to now is      114.8 secs

     Computing kpt #:    76
     total cpu time spent up to now is      116.2 secs

     Computing kpt #:    77
     total cpu time spent up to now is      117.7 secs

     Computing kpt #:    78
     total cpu time spent up to now is      119.1 secs

     Computing kpt #:    79
     total cpu time spent up to now is      120.5 secs

     Computing kpt #:    80
     total cpu time spent up to now is      121.9 secs

     Computing kpt #:    81
     total cpu time spent up to now is      123.4 secs

     Computing kpt #:    82
     total cpu time spent up to now is      124.9 secs

     Computing kpt #:    83
     total cpu time spent up to now is      126.4 secs

     Computing kpt #:    84
     total cpu time spent up to now is      127.9 secs

     Computing kpt #:    85
     total cpu time spent up to now is      129.3 secs

     Computing kpt #:    86
     total cpu time spent up to now is      130.6 secs

     Computing kpt #:    87
     total cpu time spent up to now is      132.0 secs

     Computing kpt #:    88
     total cpu time spent up to now is      133.4 secs

     Computing kpt #:    89
     total cpu time spent up to now is      134.9 secs

     Computing kpt #:    90
     total cpu time spent up to now is      136.3 secs

     Computing kpt #:    91
     total cpu time spent up to now is      137.7 secs

     Computing kpt #:    92
     total cpu time spent up to now is      139.1 secs

     Computing kpt #:    93
     total cpu time spent up to now is      140.5 secs

     Computing kpt #:    94
     total cpu time spent up to now is      141.9 secs

     Computing kpt #:    95
     total cpu time spent up to now is      143.3 secs

     Computing kpt #:    96
     total cpu time spent up to now is      144.7 secs

     Computing kpt #:    97
     total cpu time spent up to now is      146.0 secs

     Computing kpt #:    98
     total cpu time spent up to now is      147.4 secs

     Computing kpt #:    99
     total cpu time spent up to now is      148.9 secs

     Computing kpt #:   100
     total cpu time spent up to now is      150.4 secs

     Computing kpt #:   101
     total cpu time spent up to now is      152.0 secs

     Computing kpt #:   102
     total cpu time spent up to now is      153.7 secs

     Computing kpt #:   103
     total cpu time spent up to now is      155.3 secs

     Computing kpt #:   104
     total cpu time spent up to now is      156.8 secs

     Computing kpt #:   105
     total cpu time spent up to now is      158.3 secs

     Computing kpt #:   106
     total cpu time spent up to now is      159.8 secs

     Computing kpt #:   107
     total cpu time spent up to now is      161.3 secs

     Computing kpt #:   108
     total cpu time spent up to now is      162.8 secs

     Computing kpt #:   109
     total cpu time spent up to now is      164.2 secs

     Computing kpt #:   110
     total cpu time spent up to now is      165.6 secs

     Computing kpt #:   111
     total cpu time spent up to now is      166.9 secs

     Computing kpt #:   112
     total cpu time spent up to now is      168.4 secs

     Computing kpt #:   113
     total cpu time spent up to now is      169.7 secs

     Computing kpt #:   114
     total cpu time spent up to now is      171.0 secs

     Computing kpt #:   115
     total cpu time spent up to now is      172.3 secs

     Computing kpt #:   116
     total cpu time spent up to now is      173.6 secs

     Computing kpt #:   117
     total cpu time spent up to now is      174.8 secs

     Computing kpt #:   118
     total cpu time spent up to now is      176.1 secs

     Computing kpt #:   119
     total cpu time spent up to now is      177.3 secs

     Computing kpt #:   120
     total cpu time spent up to now is      178.6 secs

     Computing kpt #:   121
     total cpu time spent up to now is      179.8 secs

     Computing kpt #:   122
     total cpu time spent up to now is      181.1 secs

     Computing kpt #:   123
     total cpu time spent up to now is      182.2 secs

     Computing kpt #:   124
     total cpu time spent up to now is      183.5 secs

     Computing kpt #:   125
     total cpu time spent up to now is      185.0 secs

     Computing kpt #:   126
     total cpu time spent up to now is      186.3 secs

     Computing kpt #:   127
     total cpu time spent up to now is      187.5 secs

     Computing kpt #:   128
     total cpu time spent up to now is      188.8 secs

     Computing kpt #:   129
     total cpu time spent up to now is      190.1 secs

     Computing kpt #:   130
     total cpu time spent up to now is      191.4 secs

     Computing kpt #:   131
     total cpu time spent up to now is      192.8 secs

     Computing kpt #:   132
     total cpu time spent up to now is      194.1 secs

     Computing kpt #:   133
     total cpu time spent up to now is      195.5 secs

     Computing kpt #:   134
     total cpu time spent up to now is      196.7 secs

     Computing kpt #:   135
     total cpu time spent up to now is      198.0 secs

     Computing kpt #:   136
     total cpu time spent up to now is      199.1 secs

     Computing kpt #:   137
     total cpu time spent up to now is      200.5 secs

     Computing kpt #:   138
     total cpu time spent up to now is      201.9 secs

     Computing kpt #:   139
     total cpu time spent up to now is      203.1 secs

     Computing kpt #:   140
     total cpu time spent up to now is      204.3 secs

     Computing kpt #:   141
     total cpu time spent up to now is      205.4 secs

     Computing kpt #:   142
     total cpu time spent up to now is      206.4 secs

     Computing kpt #:   143
     total cpu time spent up to now is      207.8 secs

     Computing kpt #:   144
     total cpu time spent up to now is      209.0 secs

     Computing kpt #:   145
     total cpu time spent up to now is      210.1 secs

     Computing kpt #:   146
     total cpu time spent up to now is      211.1 secs

     Computing kpt #:   147
     total cpu time spent up to now is      212.3 secs

     Computing kpt #:   148
     total cpu time spent up to now is      213.4 secs

     Computing kpt #:   149
     total cpu time spent up to now is      214.7 secs

     Computing kpt #:   150
     total cpu time spent up to now is      216.0 secs

     Computing kpt #:   151
     total cpu time spent up to now is      217.5 secs

     Computing kpt #:   152
     total cpu time spent up to now is      219.1 secs

     Computing kpt #:   153
     total cpu time spent up to now is      220.6 secs

     Computing kpt #:   154
     total cpu time spent up to now is      221.9 secs

     Computing kpt #:   155
     total cpu time spent up to now is      223.3 secs

     Computing kpt #:   156
     total cpu time spent up to now is      224.7 secs

     Computing kpt #:   157
     total cpu time spent up to now is      226.1 secs

     Computing kpt #:   158
     total cpu time spent up to now is      227.5 secs

     Computing kpt #:   159
     total cpu time spent up to now is      229.1 secs

     Computing kpt #:   160
     total cpu time spent up to now is      230.6 secs

     Computing kpt #:   161
     total cpu time spent up to now is      232.0 secs

     Computing kpt #:   162
     total cpu time spent up to now is      233.3 secs

     Computing kpt #:   163
     total cpu time spent up to now is      234.7 secs

     Computing kpt #:   164
     total cpu time spent up to now is      235.9 secs

     Computing kpt #:   165
     total cpu time spent up to now is      237.2 secs

     Computing kpt #:   166
     total cpu time spent up to now is      238.5 secs

     Computing kpt #:   167
     total cpu time spent up to now is      239.5 secs

     Computing kpt #:   168
     total cpu time spent up to now is      240.8 secs

     Computing kpt #:   169
     total cpu time spent up to now is      242.0 secs

     Computing kpt #:   170
     total cpu time spent up to now is      243.3 secs

     Computing kpt #:   171
     total cpu time spent up to now is      244.5 secs

     Computing kpt #:   172
     total cpu time spent up to now is      245.8 secs

     Computing kpt #:   173
     total cpu time spent up to now is      246.8 secs

     Computing kpt #:   174
     total cpu time spent up to now is      247.9 secs

     Computing kpt #:   175
     total cpu time spent up to now is      248.9 secs

     Computing kpt #:   176
     total cpu time spent up to now is      250.0 secs

     Computing kpt #:   177
     total cpu time spent up to now is      251.0 secs

     Computing kpt #:   178
     total cpu time spent up to now is      252.0 secs

     Computing kpt #:   179
     total cpu time spent up to now is      253.0 secs

     Computing kpt #:   180
     total cpu time spent up to now is      254.1 secs

     Computing kpt #:   181
     total cpu time spent up to now is      255.2 secs

     ethr =  1.25E-10,  avg # of iterations = 32.4

     total cpu time spent up to now is      255.2 secs

     End of band structure calculation

          k = 0.0000 0.0000 0.0000 ( 10513 PWs)   bands (ev):

   -13.1132  -4.8190  -3.5568  -3.5559  -0.4363   0.8103   0.8108   1.3214

          k = 0.0071 0.0041 0.0000 ( 10501 PWs)   bands (ev):

   -13.1127  -4.8184  -3.5616  -3.5576  -0.4316   0.8101   0.8129   1.3220

          k = 0.0143 0.0082 0.0000 ( 10507 PWs)   bands (ev):

   -13.1109  -4.8167  -3.5777  -3.5608  -0.4176   0.8090   0.8196   1.3240

          k = 0.0214 0.0124 0.0000 ( 10509 PWs)   bands (ev):

   -13.1080  -4.8139  -3.6042  -3.5661  -0.3947   0.8074   0.8307   1.3272

          k = 0.0286 0.0165 0.0000 ( 10513 PWs)   bands (ev):

   -13.1039  -4.8099  -3.6406  -3.5734  -0.3638   0.8056   0.8462   1.3318

          k = 0.0357 0.0206 0.0000 ( 10497 PWs)   bands (ev):

   -13.0987  -4.8048  -3.6861  -3.5827  -0.3258   0.8040   0.8660   1.3376

          k = 0.0429 0.0247 0.0000 ( 10513 PWs)   bands (ev):

   -13.0923  -4.7985  -3.7401  -3.5939  -0.2822   0.8032   0.8902   1.3448

          k = 0.0500 0.0289 0.0000 ( 10513 PWs)   bands (ev):

   -13.0847  -4.7911  -3.8017  -3.6071  -0.2344   0.8041   0.9185   1.3533

          k = 0.0571 0.0330 0.0000 ( 10505 PWs)   bands (ev):

   -13.0759  -4.7826  -3.8701  -3.6220  -0.1841   0.8077   0.9509   1.3630

          k = 0.0643 0.0371 0.0000 ( 10513 PWs)   bands (ev):

   -13.0660  -4.7730  -3.9446  -3.6386  -0.1335   0.8154   0.9874   1.3741

          k = 0.0714 0.0412 0.0000 ( 10519 PWs)   bands (ev):

   -13.0550  -4.7622  -4.0243  -3.6568  -0.0846   0.8288   1.0278   1.3865

          k = 0.0786 0.0454 0.0000 ( 10523 PWs)   bands (ev):

   -13.0428  -4.7503  -4.1087  -3.6765  -0.0398   0.8496   1.0721   1.4001

          k = 0.0857 0.0495 0.0000 ( 10529 PWs)   bands (ev):

   -13.0294  -4.7372  -4.1971  -3.6976  -0.0012   0.8795   1.1201   1.4151

          k = 0.0929 0.0536 0.0000 ( 10521 PWs)   bands (ev):

   -13.0149  -4.7231  -4.2890  -3.7200   0.0294   0.9199   1.1717   1.4313

          k = 0.1000 0.0577 0.0000 ( 10527 PWs)   bands (ev):

   -12.9992  -4.7078  -4.3838  -3.7435   0.0509   0.9714   1.2268   1.4489

          k = 0.1071 0.0619 0.0000 ( 10539 PWs)   bands (ev):

   -12.9824  -4.6914  -4.4812  -3.7682   0.0633   1.0340   1.2853   1.4677

          k = 0.1143 0.0660 0.0000 ( 10535 PWs)   bands (ev):

   -12.9644  -4.6739  -4.5808  -3.7937   0.0671   1.1069   1.3471   1.4879

          k = 0.1214 0.0701 0.0000 ( 10535 PWs)   bands (ev):

   -12.9453  -4.6823  -4.6552  -3.8202   0.0632   1.1888   1.4121   1.5093

          k = 0.1286 0.0742 0.0000 ( 10527 PWs)   bands (ev):

   -12.9251  -4.7853  -4.6355  -3.8473   0.0529   1.2784   1.4801   1.5320

          k = 0.1357 0.0784 0.0000 ( 10519 PWs)   bands (ev):

   -12.9037  -4.8897  -4.6146  -3.8752   0.0373   1.3746   1.5512   1.5561

          k = 0.1429 0.0825 0.0000 ( 10533 PWs)   bands (ev):

   -12.8812  -4.9951  -4.5927  -3.9036   0.0173   1.4760   1.5814   1.6251

          k = 0.1500 0.0866 0.0000 ( 10539 PWs)   bands (ev):

   -12.8576  -5.1014  -4.5696  -3.9324  -0.0061   1.5819   1.6080   1.7018

          k = 0.1571 0.0907 0.0000 ( 10539 PWs)   bands (ev):

   -12.8328  -5.2084  -4.5455  -3.9616  -0.0323   1.6357   1.6917   1.7813

          k = 0.1643 0.0948 0.0000 ( 10545 PWs)   bands (ev):

   -12.8069  -5.3159  -4.5203  -3.9911  -0.0606   1.6649   1.8043   1.8633

          k = 0.1714 0.0990 0.0000 ( 10561 PWs)   bands (ev):

   -12.7799  -5.4239  -4.4939  -4.0209  -0.0908   1.6954   1.9194   1.9478

          k = 0.1786 0.1031 0.0000 ( 10557 PWs)   bands (ev):

   -12.7519  -5.5321  -4.4665  -4.0507  -0.1222   1.7271   2.0348   2.0368

          k = 0.1857 0.1072 0.0000 ( 10561 PWs)   bands (ev):

   -12.7227  -5.6405  -4.4381  -4.0806  -0.1548   1.7601   2.1242   2.1558

          k = 0.1929 0.1113 0.0000 ( 10573 PWs)   bands (ev):

   -12.6924  -5.7490  -4.4085  -4.1105  -0.1881   1.7943   2.2159   2.2764

          k = 0.2000 0.1155 0.0000 ( 10575 PWs)   bands (ev):

   -12.6610  -5.8574  -4.3780  -4.1403  -0.2220   1.8298   2.2619   2.3099

          k = 0.2071 0.1196 0.0000 ( 10573 PWs)   bands (ev):

   -12.6286  -5.9657  -4.3463  -4.1700  -0.2562   1.8666   2.1586   2.4060

          k = 0.2143 0.1237 0.0000 ( 10573 PWs)   bands (ev):

   -12.5951  -6.0738  -4.3136  -4.1995  -0.2907   1.9047   2.0553   2.5043

          k = 0.2214 0.1278 0.0000 ( 10569 PWs)   bands (ev):

   -12.5605  -6.1817  -4.2799  -4.2288  -0.3253   1.9440   1.9521   2.6046

          k = 0.2286 0.1320 0.0000 ( 10567 PWs)   bands (ev):

   -12.5249  -6.2892  -4.2578  -4.2452  -0.3598   1.8492   1.9846   2.7069

          k = 0.2357 0.1361 0.0000 ( 10569 PWs)   bands (ev):

   -12.4883  -6.3963  -4.2864  -4.2095  -0.3941   1.7465   2.0264   2.8112

          k = 0.2429 0.1402 0.0000 ( 10565 PWs)   bands (ev):

   -12.4506  -6.5029  -4.3146  -4.1728  -0.4282   1.6442   2.0695   2.9175

          k = 0.2500 0.1443 0.0000 ( 10565 PWs)   bands (ev):

   -12.4119  -6.6090  -4.3425  -4.1351  -0.4620   1.5424   2.1138   3.0256

          k = 0.2571 0.1485 0.0000 ( 10561 PWs)   bands (ev):

   -12.3723  -6.7145  -4.3698  -4.0964  -0.4954   1.4409   2.1593   3.1355

          k = 0.2643 0.1526 0.0000 ( 10557 PWs)   bands (ev):

   -12.3316  -6.8194  -4.3967  -4.0568  -0.5282   1.3400   2.2061   3.2473

          k = 0.2714 0.1567 0.0000 ( 10559 PWs)   bands (ev):

   -12.2900  -6.9235  -4.4230  -4.0162  -0.5606   1.2397   2.2541   3.3608

          k = 0.2786 0.1608 0.0000 ( 10565 PWs)   bands (ev):

   -12.2475  -7.0270  -4.4488  -3.9748  -0.5923   1.1400   2.3033   3.4760

          k = 0.2857 0.1650 0.0000 ( 10557 PWs)   bands (ev):

   -12.2041  -7.1296  -4.4740  -3.9324  -0.6234   1.0410   2.3537   3.5929

          k = 0.2929 0.1691 0.0000 ( 10573 PWs)   bands (ev):

   -12.1597  -7.2314  -4.4986  -3.8892  -0.6537   0.9428   2.4053   3.7115

          k = 0.3000 0.1732 0.0000 ( 10573 PWs)   bands (ev):

   -12.1145  -7.3323  -4.5225  -3.8452  -0.6834   0.8453   2.4581   3.8318

          k = 0.3071 0.1773 0.0000 ( 10561 PWs)   bands (ev):

   -12.0685  -7.4323  -4.5458  -3.8004  -0.7122   0.7488   2.5120   3.9536

          k = 0.3143 0.1815 0.0000 ( 10565 PWs)   bands (ev):

   -12.0217  -7.5312  -4.5683  -3.7548  -0.7403   0.6531   2.5671   4.0770

          k = 0.3214 0.1856 0.0000 ( 10573 PWs)   bands (ev):

   -11.9741  -7.6291  -4.5902  -3.7084  -0.7674   0.5585   2.6234   4.2020

          k = 0.3286 0.1897 0.0000 ( 10571 PWs)   bands (ev):

   -11.9259  -7.7258  -4.6114  -3.6614  -0.7938   0.4649   2.6808   4.3285

          k = 0.3357 0.1938 0.0000 ( 10573 PWs)   bands (ev):

   -11.8769  -7.8213  -4.6317  -3.6138  -0.8192   0.3724   2.7393   4.4251

          k = 0.3429 0.1979 0.0000 ( 10565 PWs)   bands (ev):

   -11.8274  -7.9156  -4.6514  -3.5656  -0.8436   0.2811   2.7989   4.4802

          k = 0.3500 0.2021 0.0000 ( 10565 PWs)   bands (ev):

   -11.7773  -8.0085  -4.6702  -3.5169  -0.8672   0.1911   2.8596   4.5359

          k = 0.3572 0.2062 0.0000 ( 10561 PWs)   bands (ev):

   -11.7268  -8.0999  -4.6883  -3.4678  -0.8897   0.1026   2.9213   4.5921

          k = 0.3643 0.2103 0.0000 ( 10569 PWs)   bands (ev):

   -11.6759  -8.1898  -4.7055  -3.4183  -0.9113   0.0155   2.9840   4.6487

          k = 0.3714 0.2144 0.0000 ( 10565 PWs)   bands (ev):

   -11.6247  -8.2780  -4.7220  -3.3686  -0.9318  -0.0700   3.0477   4.7056

          k = 0.3786 0.2186 0.0000 ( 10565 PWs)   bands (ev):

   -11.5734  -8.3645  -4.7376  -3.3188  -0.9513  -0.1538   3.1124   4.7627

          k = 0.3857 0.2227 0.0000 ( 10567 PWs)   bands (ev):

   -11.5220  -8.4490  -4.7524  -3.2690  -0.9698  -0.2357   3.1779   4.8197

          k = 0.3929 0.2268 0.0000 ( 10567 PWs)   bands (ev):

   -11.4708  -8.5314  -4.7663  -3.2193  -0.9872  -0.3155   3.2442   4.8765

          k = 0.4000 0.2309 0.0000 ( 10567 PWs)   bands (ev):

   -11.4199  -8.6115  -4.7793  -3.1700  -1.0035  -0.3930   3.3113   4.9329

          k = 0.4072 0.2351 0.0000 ( 10565 PWs)   bands (ev):

   -11.3696  -8.6891  -4.7915  -3.1213  -1.0188  -0.4681   3.3791   4.9885

          k = 0.4143 0.2392 0.0000 ( 10573 PWs)   bands (ev):

   -11.3200  -8.7639  -4.8028  -3.0734  -1.0329  -0.5405   3.4474   5.0431

          k = 0.4214 0.2433 0.0000 ( 10577 PWs)   bands (ev):

   -11.2715  -8.8356  -4.8133  -3.0266  -1.0460  -0.6099   3.5161   5.0962

          k = 0.4286 0.2474 0.0000 ( 10587 PWs)   bands (ev):

   -11.2245  -8.9040  -4.8228  -2.9812  -1.0580  -0.6758   3.5850   5.0842

          k = 0.4357 0.2516 0.0000 ( 10585 PWs)   bands (ev):

   -11.1792  -8.9684  -4.8315  -2.9377  -1.0688  -0.7380   3.6540   5.0458

          k = 0.4429 0.2557 0.0000 ( 10583 PWs)   bands (ev):

   -11.1363  -9.0286  -4.8392  -2.8964  -1.0785  -0.7960   3.7226   5.0008

          k = 0.4500 0.2598 0.0000 ( 10583 PWs)   bands (ev):

   -11.0962  -9.0839  -4.8461  -2.8579  -1.0871  -0.8493   3.7905   4.9509

          k = 0.4572 0.2639 0.0000 ( 10583 PWs)   bands (ev):

   -11.0595  -9.1338  -4.8520  -2.8227  -1.0946  -0.8973   3.8569   4.8980

          k = 0.4643 0.2681 0.0000 ( 10575 PWs)   bands (ev):

   -11.0268  -9.1777  -4.8571  -2.7915  -1.1009  -0.9393   3.9209   4.8438

          k = 0.4714 0.2722 0.0000 ( 10577 PWs)   bands (ev):

   -10.9988  -9.2148  -4.8612  -2.7648  -1.1060  -0.9749   3.9811   4.7908

          k = 0.4786 0.2763 0.0000 ( 10557 PWs)   bands (ev):

   -10.9762  -9.2445  -4.8644  -2.7432  -1.1101  -1.0034   4.0352   4.7418

          k = 0.4857 0.2804 0.0000 ( 10571 PWs)   bands (ev):

   -10.9596  -9.2663  -4.8667  -2.7274  -1.1129  -1.0242   4.0796   4.7006

          k = 0.4929 0.2845 0.0000 ( 10573 PWs)   bands (ev):

   -10.9493  -9.2795  -4.8681  -2.7177  -1.1147  -1.0368   4.1096   4.6725

          k = 0.5000 0.2887 0.0000 ( 10564 PWs)   bands (ev):

   -10.9459  -9.2840  -4.8686  -2.7144  -1.1153  -1.0411   4.1204   4.6623

          k = 0.5042 0.2815 0.0000 ( 10574 PWs)   bands (ev):

   -10.9453  -9.2840  -4.8726  -2.7138  -1.1096  -1.0412   4.1208   4.6626

          k = 0.5083 0.2742 0.0000 ( 10576 PWs)   bands (ev):

   -10.9434  -9.2842  -4.8846  -2.7120  -1.0926  -1.0416   4.1222   4.6635

          k = 0.5125 0.2670 0.0000 ( 10572 PWs)   bands (ev):

   -10.9402  -9.2844  -4.9043  -2.7089  -1.0647  -1.0422   4.1244   4.6649

          k = 0.5167 0.2598 0.0000 ( 10572 PWs)   bands (ev):

   -10.9357  -9.2848  -4.9314  -2.7046  -1.0431  -1.0260   4.1276   4.6669

          k = 0.5208 0.2526 0.0000 ( 10572 PWs)   bands (ev):

   -10.9300  -9.2853  -4.9653  -2.6990  -1.0443  -0.9772   4.1315   4.6693

          k = 0.5250 0.2454 0.0000 ( 10572 PWs)   bands (ev):

   -10.9230  -9.2860  -5.0054  -2.6923  -1.0458  -0.9188   4.1364   4.5771

          k = 0.5292 0.2382 0.0000 ( 10572 PWs)   bands (ev):

   -10.9147  -9.2869  -5.0512  -2.6843  -1.0476  -0.8514   4.1420   4.4690

          k = 0.5333 0.2309 0.0000 ( 10572 PWs)   bands (ev):

   -10.9052  -9.2880  -5.1020  -2.6751  -1.0498  -0.7756   4.1484   4.3614

          k = 0.5375 0.2237 0.0000 ( 10584 PWs)   bands (ev):

   -10.8944  -9.2894  -5.1570  -2.6646  -1.0525  -0.6920   4.1556   4.2549

          k = 0.5417 0.2165 0.0000 ( 10584 PWs)   bands (ev):

   -10.8823  -9.2912  -5.2156  -2.6529  -1.0556  -0.6014   4.1496   4.1635

          k = 0.5458 0.2093 0.0000 ( 10576 PWs)   bands (ev):

   -10.8689  -9.2933  -5.2772  -2.6400  -1.0593  -0.5042   4.0460   4.1720

          k = 0.5500 0.2021 0.0000 ( 10576 PWs)   bands (ev):

   -10.8543  -9.2960  -5.3411  -2.6259  -1.0636  -0.4011   3.9442   4.1810

          k = 0.5542 0.1949 0.0000 ( 10576 PWs)   bands (ev):

   -10.8384  -9.2991  -5.4068  -2.6105  -1.0685  -0.2925   3.8444   4.1906

          k = 0.5583 0.1876 0.0000 ( 10582 PWs)   bands (ev):

   -10.8212  -9.3029  -5.4739  -2.5939  -1.0742  -0.1789   3.7468   4.2005

          k = 0.5625 0.1804 0.0000 ( 10578 PWs)   bands (ev):

   -10.8028  -9.3074  -5.5416  -2.5761  -1.0807  -0.0607   3.6516   4.2107

          k = 0.5667 0.1732 0.0000 ( 10578 PWs)   bands (ev):

   -10.7831  -9.3127  -5.6097  -2.5571  -1.0881   0.0617   3.5590   4.2211

          k = 0.5708 0.1660 0.0000 ( 10582 PWs)   bands (ev):

   -10.7622  -9.3188  -5.6777  -2.5368  -1.0964   0.1879   3.4690   4.2314

          k = 0.5750 0.1588 0.0000 ( 10578 PWs)   bands (ev):

   -10.7399  -9.3260  -5.7451  -2.5153  -1.1059   0.3176   3.3820   4.2415

          k = 0.5792 0.1516 0.0000 ( 10586 PWs)   bands (ev):

   -10.7165  -9.3343  -5.8116  -2.4926  -1.1165   0.4506   3.2979   4.2513

          k = 0.5833 0.1443 0.0000 ( 10582 PWs)   bands (ev):

   -10.6917  -9.3439  -5.8770  -2.4687  -1.1284   0.5865   3.2170   4.2603

          k = 0.5875 0.1371 0.0000 ( 10582 PWs)   bands (ev):

   -10.6657  -9.3547  -5.9407  -2.4435  -1.1416   0.7252   3.1394   4.2683

          k = 0.5917 0.1299 0.0000 ( 10570 PWs)   bands (ev):

   -10.6384  -9.3671  -6.0026  -2.4171  -1.1562   0.8665   3.0652   4.2751

          k = 0.5958 0.1227 0.0000 ( 10576 PWs)   bands (ev):

   -10.6099  -9.3810  -6.0624  -2.3895  -1.1724   1.0100   2.9946   4.2801

          k = 0.6000 0.1155 0.0000 ( 10566 PWs)   bands (ev):

   -10.5801  -9.3966  -6.1198  -2.3607  -1.1903   1.1556   2.9276   4.2829

          k = 0.6042 0.1083 0.0000 ( 10566 PWs)   bands (ev):

   -10.5491  -9.4141  -6.1745  -2.3307  -1.2098   1.3032   2.8644   4.2830

          k = 0.6083 0.1010 0.0000 ( 10564 PWs)   bands (ev):

   -10.5168  -9.4335  -6.2263  -2.2994  -1.2312   1.4525   2.8051   4.2799

          k = 0.6125 0.0938 0.0000 ( 10566 PWs)   bands (ev):

   -10.4832  -9.4549  -6.2751  -2.2669  -1.2544   1.6034   2.7498   4.2730

          k = 0.6167 0.0866 0.0000 ( 10554 PWs)   bands (ev):

   -10.4485  -9.4784  -6.3207  -2.2332  -1.2795   1.7556   2.6985   4.2618

          k = 0.6208 0.0794 0.0000 ( 10558 PWs)   bands (ev):

   -10.4124  -9.5041  -6.3628  -2.1983  -1.3066   1.9089   2.6513   4.2458

          k = 0.6250 0.0722 0.0000 ( 10558 PWs)   bands (ev):

   -10.3751  -9.5320  -6.4014  -2.1622  -1.3357   2.0631   2.6084   4.2247

          k = 0.6292 0.0650 0.0000 ( 10558 PWs)   bands (ev):

   -10.3366  -9.5623  -6.4364  -2.1249  -1.3668   2.2179   2.5696   4.1981

          k = 0.6333 0.0577 0.0000 ( 10550 PWs)   bands (ev):

   -10.2968  -9.5948  -6.4677  -2.0864  -1.4000   2.3730   2.5350   4.1450

          k = 0.6375 0.0505 0.0000 ( 10534 PWs)   bands (ev):

   -10.2558  -9.6296  -6.4952  -2.0466  -1.4352   2.5047   2.5279   4.0754

          k = 0.6417 0.0433 0.0000 ( 10538 PWs)   bands (ev):

   -10.2135  -9.6668  -6.5189  -2.0057  -1.4724   2.4786   2.6821   4.0049

          k = 0.6458 0.0361 0.0000 ( 10558 PWs)   bands (ev):

   -10.1700  -9.7061  -6.5388  -1.9635  -1.5115   2.4566   2.8344   3.9344

          k = 0.6500 0.0289 0.0000 ( 10570 PWs)   bands (ev):

   -10.1253  -9.7477  -6.5550  -1.9201  -1.5526   2.4389   2.9834   3.8653

          k = 0.6542 0.0217 0.0000 ( 10568 PWs)   bands (ev):

   -10.0794  -9.7913  -6.5675  -1.8756  -1.5955   2.4252   3.1261   3.8004

          k = 0.6583 0.0144 0.0000 ( 10568 PWs)   bands (ev):

   -10.0322  -9.8370  -6.5762  -1.8298  -1.6402   2.4155   3.2553   3.7463

          k = 0.6625 0.0072 0.0000 ( 10568 PWs)   bands (ev):

    -9.9838  -9.8846  -6.5814  -1.7829  -1.6866   2.4098   3.3530   3.7202

          k = 0.6667 0.0000 0.0000 ( 10566 PWs)   bands (ev):

    -9.9342  -9.9339  -6.5831  -1.7348  -1.7345   2.4079   3.3887   3.7515

          k = 0.6572 0.0000 0.0000 ( 10566 PWs)   bands (ev):

    -9.9927  -9.8757  -6.5810  -1.7914  -1.6780   2.4103   3.3566   3.6771

          k = 0.6476 0.0000 0.0000 ( 10562 PWs)   bands (ev):

   -10.0532  -9.8159  -6.5745  -1.8499  -1.6200   2.4174   3.2910   3.6009

          k = 0.6381 0.0000 0.0000 ( 10564 PWs)   bands (ev):

   -10.1154  -9.7545  -6.5640  -1.9100  -1.5604   2.4292   3.2141   3.5232

          k = 0.6286 0.0000 0.0000 ( 10560 PWs)   bands (ev):

   -10.1793  -9.6915  -6.5496  -1.9715  -1.4992   2.4453   3.1327   3.4445

          k = 0.6191 0.0000 0.0000 ( 10558 PWs)   bands (ev):

   -10.2446  -9.6269  -6.5315  -2.0344  -1.4365   2.4657   3.0496   3.3650

          k = 0.6095 0.0000 0.0000 ( 10558 PWs)   bands (ev):

   -10.3111  -9.5608  -6.5099  -2.0984  -1.3723   2.4901   2.9660   3.2850

          k = 0.6000 0.0000 0.0000 ( 10562 PWs)   bands (ev):

   -10.3786  -9.4931  -6.4850  -2.1634  -1.3066   2.5184   2.8826   3.2048

          k = 0.5905 0.0000 0.0000 ( 10562 PWs)   bands (ev):

   -10.4469  -9.4239  -6.4568  -2.2291  -1.2393   2.5504   2.7996   3.1246

          k = 0.5810 0.0000 0.0000 ( 10570 PWs)   bands (ev):

   -10.5159  -9.3531  -6.4257  -2.2956  -1.1705   2.5860   2.7173   3.0444

          k = 0.5714 0.0000 0.0000 ( 10574 PWs)   bands (ev):

   -10.5854  -9.2808  -6.3918  -2.3625  -1.1001   2.6249   2.6360   2.9646

          k = 0.5619 0.0000 0.0000 ( 10574 PWs)   bands (ev):

   -10.6552  -9.2069  -6.3552  -2.4298  -1.0283   2.5557   2.6671   2.8851

          k = 0.5524 0.0000 0.0000 ( 10578 PWs)   bands (ev):

   -10.7253  -9.1315  -6.3161  -2.4974  -0.9550   2.4766   2.7124   2.8061

          k = 0.5429 0.0000 0.0000 ( 10566 PWs)   bands (ev):

   -10.7954  -9.0545  -6.2747  -2.5651  -0.8801   2.3987   2.7278   2.7605

          k = 0.5333 0.0000 0.0000 ( 10566 PWs)   bands (ev):

   -10.8655  -8.9761  -6.2310  -2.6327  -0.8038   2.3222   2.6501   2.8114

          k = 0.5238 0.0000 0.0000 ( 10568 PWs)   bands (ev):

   -10.9354  -8.8961  -6.1852  -2.7003  -0.7260   2.2470   2.5731   2.8649

          k = 0.5143 0.0000 0.0000 ( 10566 PWs)   bands (ev):

   -11.0051  -8.8147  -6.1374  -2.7676  -0.6467   2.1732   2.4969   2.9208

          k = 0.5048 0.0000 0.0000 ( 10554 PWs)   bands (ev):

   -11.0744  -8.7317  -6.0878  -2.8347  -0.5660   2.1010   2.4216   2.9790

          k = 0.4952 0.0000 0.0000 ( 10546 PWs)   bands (ev):

   -11.1432  -8.6473  -6.0364  -2.9013  -0.4837   2.0302   2.3472   3.0394

          k = 0.4857 0.0000 0.0000 ( 10546 PWs)   bands (ev):

   -11.2115  -8.5614  -5.9835  -2.9675  -0.4001   1.9611   2.2738   3.1017

          k = 0.4762 0.0000 0.0000 ( 10546 PWs)   bands (ev):

   -11.2791  -8.4740  -5.9290  -3.0331  -0.3150   1.8935   2.2013   3.1657

          k = 0.4667 0.0000 0.0000 ( 10546 PWs)   bands (ev):

   -11.3461  -8.3852  -5.8730  -3.0980  -0.2285   1.8277   2.1299   3.2313

          k = 0.4572 0.0000 0.0000 ( 10542 PWs)   bands (ev):

   -11.4124  -8.2950  -5.8158  -3.1623  -0.1406   1.7635   2.0595   3.2738

          k = 0.4476 0.0000 0.0000 ( 10542 PWs)   bands (ev):

   -11.4778  -8.2033  -5.7574  -3.2258  -0.0513   1.7010   1.9902   3.1967

          k = 0.4381 0.0000 0.0000 ( 10542 PWs)   bands (ev):

   -11.5423  -8.1102  -5.6978  -3.2885   0.0394   1.6403   1.9219   3.1207

          k = 0.4286 0.0000 0.0000 ( 10542 PWs)   bands (ev):

   -11.6060  -8.0157  -5.6373  -3.3503   0.1315   1.5814   1.8548   3.0459

          k = 0.4191 0.0000 0.0000 ( 10544 PWs)   bands (ev):

   -11.6686  -7.9199  -5.5758  -3.4113   0.2249   1.5243   1.7889   2.9724

          k = 0.4095 0.0000 0.0000 ( 10536 PWs)   bands (ev):

   -11.7303  -7.8226  -5.5135  -3.4712   0.3197   1.4690   1.7241   2.9002

          k = 0.4000 0.0000 0.0000 ( 10532 PWs)   bands (ev):

   -11.7909  -7.7241  -5.4505  -3.5302   0.4157   1.4156   1.6604   2.8294

          k = 0.3905 0.0000 0.0000 ( 10534 PWs)   bands (ev):

   -11.8504  -7.6242  -5.3869  -3.5881   0.5131   1.3642   1.5979   2.7600

          k = 0.3810 0.0000 0.0000 ( 10540 PWs)   bands (ev):

   -11.9088  -7.5229  -5.3227  -3.6449   0.6117   1.3147   1.5366   2.6920

          k = 0.3714 0.0000 0.0000 ( 10556 PWs)   bands (ev):

   -11.9661  -7.4204  -5.2581  -3.7007   0.7116   1.2672   1.4765   2.6256

          k = 0.3619 0.0000 0.0000 ( 10554 PWs)   bands (ev):

   -12.0221  -7.3167  -5.1932  -3.7552   0.8128   1.2217   1.4176   2.5606

          k = 0.3524 0.0000 0.0000 ( 10568 PWs)   bands (ev):

   -12.0770  -7.2117  -5.1280  -3.8087   0.9151   1.1782   1.3598   2.4972

          k = 0.3429 0.0000 0.0000 ( 10564 PWs)   bands (ev):

   -12.1306  -7.1055  -5.0627  -3.8609   1.0185   1.1367   1.3033   2.4353

          k = 0.3333 0.0000 0.0000 ( 10568 PWs)   bands (ev):

   -12.1829  -6.9981  -4.9975  -3.9119   1.0974   1.1232   1.2479   2.3750

          k = 0.3238 0.0000 0.0000 ( 10564 PWs)   bands (ev):

   -12.2340  -6.8895  -4.9323  -3.9616   1.0602   1.1936   1.2289   2.3163

          k = 0.3143 0.0000 0.0000 ( 10562 PWs)   bands (ev):

   -12.2837  -6.7799  -4.8673  -4.0101   1.0251   1.1405   1.3356   2.2593

          k = 0.3048 0.0000 0.0000 ( 10566 PWs)   bands (ev):

   -12.3322  -6.6691  -4.8027  -4.0573   0.9921   1.0885   1.4434   2.2038

          k = 0.2952 0.0000 0.0000 ( 10550 PWs)   bands (ev):

   -12.3792  -6.5574  -4.7384  -4.1032   0.9613   1.0376   1.5522   2.1499

          k = 0.2857 0.0000 0.0000 ( 10554 PWs)   bands (ev):

   -12.4250  -6.4446  -4.6748  -4.1478   0.9327   0.9878   1.6618   2.0978

          k = 0.2762 0.0000 0.0000 ( 10562 PWs)   bands (ev):

   -12.4693  -6.3310  -4.6118  -4.1910   0.9062   0.9390   1.7724   2.0472

          k = 0.2667 0.0000 0.0000 ( 10556 PWs)   bands (ev):

   -12.5123  -6.2164  -4.5496  -4.2329   0.8820   0.8912   1.8837   1.9983

          k = 0.2571 0.0000 0.0000 ( 10552 PWs)   bands (ev):

   -12.5538  -6.1011  -4.4883  -4.2734   0.8442   0.8600   1.9511   1.9958

          k = 0.2476 0.0000 0.0000 ( 10546 PWs)   bands (ev):

   -12.5939  -5.9850  -4.4280  -4.3126   0.7981   0.8401   1.9056   2.1085

          k = 0.2381 0.0000 0.0000 ( 10554 PWs)   bands (ev):

   -12.6327  -5.8683  -4.3689  -4.3503   0.7527   0.8224   1.8617   2.2217

          k = 0.2286 0.0000 0.0000 ( 10540 PWs)   bands (ev):

   -12.6699  -5.7510  -4.3866  -4.3110   0.7080   0.8068   1.8195   2.3355

          k = 0.2191 0.0000 0.0000 ( 10540 PWs)   bands (ev):

   -12.7057  -5.6333  -4.4216  -4.2546   0.6637   0.7934   1.7790   2.4496

          k = 0.2095 0.0000 0.0000 ( 10544 PWs)   bands (ev):

   -12.7401  -5.5152  -4.4551  -4.1997   0.6198   0.7820   1.7402   2.5639

          k = 0.2000 0.0000 0.0000 ( 10542 PWs)   bands (ev):

   -12.7730  -5.3969  -4.4871  -4.1464   0.5760   0.7726   1.7031   2.5396

          k = 0.1905 0.0000 0.0000 ( 10538 PWs)   bands (ev):

   -12.8044  -5.2786  -4.5178  -4.0948   0.5321   0.7651   1.6677   2.3826

          k = 0.1810 0.0000 0.0000 ( 10535 PWs)   bands (ev):

   -12.8343  -5.1605  -4.5469  -4.0451   0.4879   0.7596   1.6341   2.2300

          k = 0.1714 0.0000 0.0000 ( 10539 PWs)   bands (ev):

   -12.8627  -5.0426  -4.5747  -3.9973   0.4429   0.7557   1.6021   2.0821

          k = 0.1619 0.0000 0.0000 ( 10535 PWs)   bands (ev):

   -12.8896  -4.9254  -4.6009  -3.9516   0.3970   0.7535   1.5718   1.9398

          k = 0.1524 0.0000 0.0000 ( 10527 PWs)   bands (ev):

   -12.9151  -4.8090  -4.6257  -3.9081   0.3495   0.7529   1.5433   1.8037

          k = 0.1429 0.0000 0.0000 ( 10535 PWs)   bands (ev):

   -12.9390  -4.6937  -4.6490  -3.8668   0.3002   0.7536   1.5164   1.6745

          k = 0.1333 0.0000 0.0000 ( 10539 PWs)   bands (ev):

   -12.9613  -4.6709  -4.5800  -3.8279   0.2486   0.7556   1.4913   1.5532

          k = 0.1238 0.0000 0.0000 ( 10543 PWs)   bands (ev):

   -12.9822  -4.6912  -4.4683  -3.7913   0.1943   0.7586   1.4404   1.4680

          k = 0.1143 0.0000 0.0000 ( 10539 PWs)   bands (ev):

   -13.0015  -4.7101  -4.3590  -3.7572   0.1373   0.7625   1.3369   1.4463

          k = 0.1048 0.0000 0.0000 ( 10523 PWs)   bands (ev):

   -13.0193  -4.7274  -4.2528  -3.7256   0.0775   0.7672   1.2433   1.4264

          k = 0.0952 0.0000 0.0000 ( 10531 PWs)   bands (ev):

   -13.0356  -4.7433  -4.1503  -3.6966   0.0153   0.7723   1.1599   1.4081

          k = 0.0857 0.0000 0.0000 ( 10527 PWs)   bands (ev):

   -13.0503  -4.7576  -4.0525  -3.6703  -0.0485   0.7777   1.0867   1.3917

          k = 0.0762 0.0000 0.0000 ( 10519 PWs)   bands (ev):

   -13.0635  -4.7705  -3.9600  -3.6466  -0.1128   0.7832   1.0235   1.3769

          k = 0.0667 0.0000 0.0000 ( 10519 PWs)   bands (ev):

   -13.0752  -4.7818  -3.8741  -3.6257  -0.1760   0.7887   0.9699   1.3639

          k = 0.0571 0.0000 0.0000 ( 10509 PWs)   bands (ev):

   -13.0853  -4.7917  -3.7958  -3.6075  -0.2364   0.7938   0.9251   1.3526

          k = 0.0476 0.0000 0.0000 ( 10511 PWs)   bands (ev):

   -13.0938  -4.8000  -3.7265  -3.5920  -0.2920   0.7985   0.8887   1.3431

          k = 0.0381 0.0000 0.0000 ( 10505 PWs)   bands (ev):

   -13.1008  -4.8068  -3.6673  -3.5794  -0.3409   0.8026   0.8598   1.3353

          k = 0.0286 0.0000 0.0000 ( 10517 PWs)   bands (ev):

   -13.1062  -4.8121  -3.6196  -3.5695  -0.3813   0.8059   0.8380   1.3292

          k = 0.0190 0.0000 0.0000 ( 10509 PWs)   bands (ev):

   -13.1101  -4.8159  -3.5846  -3.5624  -0.4114   0.8083   0.8228   1.3248

          k = 0.0095 0.0000 0.0000 ( 10505 PWs)   bands (ev):

   -13.1125  -4.8182  -3.5631  -3.5582  -0.4300   0.8098   0.8138   1.3222

          k = 0.0000 0.0000 0.0000 ( 10513 PWs)   bands (ev):

   -13.1132  -4.8190  -3.5568  -3.5559  -0.4363   0.8103   0.8108   1.3214

     Writing output data file silicene.save/

     init_run     :      1.05s CPU      1.05s WALL (       1 calls)
     electrons    :    252.27s CPU    253.44s WALL (       1 calls)

     Called by init_run:
     wfcinit      :      0.00s CPU      0.00s WALL (       1 calls)
     wfcinit:atom :      0.25s CPU      0.26s WALL (     181 calls)
     wfcinit:wfcr :     11.08s CPU     11.09s WALL (     181 calls)
     potinit      :      0.10s CPU      0.10s WALL (       1 calls)
     hinit0       :      0.70s CPU      0.70s WALL (       1 calls)

     Called by electrons:
     c_bands      :    252.27s CPU    253.44s WALL (       1 calls)
     v_of_rho     :      0.09s CPU      0.09s WALL (       1 calls)
     v_h          :      0.01s CPU      0.01s WALL (       1 calls)
     v_xc         :      0.08s CPU      0.08s WALL (       1 calls)
     newd         :      0.22s CPU      0.22s WALL (       1 calls)

     Called by c_bands:
     init_us_2    :      0.51s CPU      0.53s WALL (     181 calls)
     cegterg      :    236.52s CPU    237.19s WALL (     375 calls)

     Called by sum_band:

     Called by *egterg:
     h_psi        :    179.01s CPU    179.52s WALL (    6423 calls)
     s_psi        :     18.89s CPU     18.96s WALL (    6423 calls)
     g_psi        :      1.55s CPU      1.55s WALL (    5867 calls)
     cdiaghg      :      0.93s CPU      0.93s WALL (    6048 calls)
     cegterg:over :     17.15s CPU     17.22s WALL (    5867 calls)
     cegterg:upda :     13.84s CPU     13.89s WALL (    5867 calls)
     cegterg:last :     12.78s CPU     12.79s WALL (    1175 calls)

     Called by h_psi:
     h_psi:pot    :    178.49s CPU    178.99s WALL (    6423 calls)
     h_psi:calbec :     19.66s CPU     19.69s WALL (    6423 calls)
     vloc_psi     :    140.19s CPU    140.63s WALL (    6423 calls)
     add_vuspsi   :     18.58s CPU     18.64s WALL (    6423 calls)

     General routines
     calbec       :     19.62s CPU     19.67s WALL (    6423 calls)
     fft          :      0.06s CPU      0.06s WALL (      12 calls)
     fftw         :    124.05s CPU    124.50s WALL (   55456 calls)
     davcio       :      0.08s CPU      0.11s WALL (     362 calls)

     Parallel routines

     PWSCF        :   4m14.19s CPU   4m15.55s WALL


   This run was terminated on:   0:59:17  26Sep2023            

=------------------------------------------------------------------------------=
   JOB DONE.
=------------------------------------------------------------------------------=
