### Running on host: LAPTOP-C0A2DPIS

     Program PWSCF v.6.4.1 starts on 22Sep2023 at 21:12:22 

     This program is part of the open-source Quantum ESPRESSO suite
     for quantum simulation of materials; please cite
         "P. Giannozzi et al., J. Phys.:Condens. Matter 21 395502 (2009);
         "P. Giannozzi et al., J. Phys.:Condens. Matter 29 465901 (2017);
          URL http://www.quantum-espresso.org", 
     in publications or presentations arising from this work. More details at
     http://www.quantum-espresso.org/quote

     Parallel version (MPI), running on     1 processors

     MPI processes distributed on     1 nodes
     Reading input from silicene_scf_ecutwfc-70.in

     Current dimensions of program PWSCF are:
     Max number of different atomic species (ntypx) = 10
     Max number of k-points (npk) =  40000
     Max angular momentum in pseudopotentials (lmaxx) =  3
     Message from routine read_upf::
     Pseudo file Si.pbe-n-rrkjus_psl.1.0.0.UPF has been fixed on the fly.
To avoid this message in the future, permanently fix 
 your pseudo files following these instructions: 
https://gitlab.com/QEF/q-e/blob/master/upftools/how_to_fix_upf.md

     Subspace diagonalization in iterative solution of the eigenvalue problem:
     a serial algorithm will be used

     Message from routine setup:
     DEPRECATED: symmetry with ibrav=0, use correct ibrav instead

     G-vector sticks info
     --------------------
     sticks:   dense  smooth     PW     G-vecs:    dense   smooth      PW
     Sum         859     859    313                64713    64713   13731



     bravais-lattice index     =            0
     lattice parameter (alat)  =       7.2375  a.u.
     unit-cell volume          =    1032.2806 (a.u.)^3
     number of atoms/cell      =            2
     number of atomic types    =            1
     number of electrons       =         8.00
     number of Kohn-Sham states=            8
     kinetic-energy cutoff     =      70.0000  Ry
     charge density cutoff     =     240.0000  Ry
     convergence threshold     =      4.0E-10
     mixing beta               =       0.4000
     number of iterations used =            8  plain     mixing
     Exchange-correlation      = PBE ( 1  4  3  4 0 0)

     celldm(1)=   7.237514  celldm(2)=   0.000000  celldm(3)=   0.000000
     celldm(4)=   0.000000  celldm(5)=   0.000000  celldm(6)=   0.000000

     crystal axes: (cart. coord. in units of alat)
               a(1) = (   0.502620  -0.864507   0.000000 )  
               a(2) = (   0.502620   0.864507   0.000000 )  
               a(3) = (   0.000000   0.000000   3.133218 )  

     reciprocal axes: (cart. coord. in units 2 pi/alat)
               b(1) = (  0.994786 -0.578364  0.000000 )  
               b(2) = (  0.994786  0.578364 -0.000000 )  
               b(3) = ( -0.000000  0.000000  0.319161 )  


     PseudoPot. # 1 for Si read from file:
     /home/meyn/q-e-qe-7.1/pseudo/Si.pbe-n-rrkjus_psl.1.0.0.UPF
     MD5 check sum: 56671f82560c68743c116fe4c72cdc4c
     Pseudo is Ultrasoft + core correction, Zval =  4.0
     Generated using "atomic" code by A. Dal Corso v.5.1.2
     Using radial grid of 1141 points,  6 beta functions with: 
                l(1) =   0
                l(2) =   0
                l(3) =   1
                l(4) =   1
                l(5) =   2
                l(6) =   2
     Q(r) pseudized with 0 coefficients 


     atomic species   valence    mass     pseudopotential
        Si             4.00    28.08550     Si( 1.00)

      4 Sym. Ops. (no inversion) found


                                    s                        frac. trans.

      isym =  1     identity                                     

 cryst.   s( 1) = (     1          0          0      )
                  (     0          1          0      )
                  (     0          0          1      )

 cart.    s( 1) = (  1.0000000  0.0000000  0.0000000 )
                  (  0.0000000  1.0000000  0.0000000 )
                  (  0.0000000  0.0000000  1.0000000 )


      isym =  2     180 deg rotation - cart. axis [0,1,0]        

 cryst.   s( 2) = (     0         -1          0      )
                  (    -1          0          0      )
                  (     0          0         -1      )

 cart.    s( 2) = ( -1.0000000  0.0000000  0.0000000 )
                  (  0.0000000  1.0000000  0.0000000 )
                  (  0.0000000  0.0000000 -1.0000000 )


      isym =  3     inv. 180 deg rotation - cart. axis [0,0,1]   

 cryst.   s( 3) = (     1          0          0      )
                  (     0          1          0      )
                  (     0          0         -1      )

 cart.    s( 3) = (  1.0000000  0.0000000  0.0000000 )
                  (  0.0000000  1.0000000  0.0000000 )
                  (  0.0000000  0.0000000 -1.0000000 )


      isym =  4     inv. 180 deg rotation - cart. axis [1,0,0]   

 cryst.   s( 4) = (     0         -1          0      )
                  (    -1          0          0      )
                  (     0          0          1      )

 cart.    s( 4) = ( -1.0000000  0.0000000  0.0000000 )
                  (  0.0000000  1.0000000  0.0000000 )
                  (  0.0000000  0.0000000  1.0000000 )


   Cartesian axes

     site n.     atom                  positions (alat units)
         1           Si  tau(   1) = (   0.0000000   0.0000000   0.0000000  )
         2           Si  tau(   2) = (   0.5026205   0.2939324   0.0000000  )

   Crystallographic axes

     site n.     atom                  positions (cryst. coord.)
         1           Si  tau(   1) = (  0.0000000  0.0000000  0.0000000  )
         2           Si  tau(   2) = (  0.3300000  0.6700000  0.0000000  )

     number of k points=    31  Marzari-Vanderbilt smearing, width (Ry)=  0.0147
                       cart. coord. in units 2pi/alat
        k(    1) = (   0.0000000   0.0000000   0.0000000), wk =   0.0200000
        k(    2) = (   0.0994786   0.0578364   0.0000000), wk =   0.0800000
        k(    3) = (   0.1989573   0.1156728   0.0000000), wk =   0.0800000
        k(    4) = (   0.2984359   0.1735093   0.0000000), wk =   0.0800000
        k(    5) = (   0.3979146   0.2313457   0.0000000), wk =   0.0800000
        k(    6) = (  -0.4973932  -0.2891821   0.0000000), wk =   0.0400000
        k(    7) = (   0.1989573   0.0000000   0.0000000), wk =   0.0400000
        k(    8) = (   0.2984359   0.0578364   0.0000000), wk =   0.0800000
        k(    9) = (   0.3979146   0.1156728   0.0000000), wk =   0.0800000
        k(   10) = (   0.4973932   0.1735093   0.0000000), wk =   0.0800000
        k(   11) = (  -0.3979146  -0.3470185   0.0000000), wk =   0.0800000
        k(   12) = (  -0.2984359  -0.2891821   0.0000000), wk =   0.0800000
        k(   13) = (  -0.1989573  -0.2313457   0.0000000), wk =   0.0800000
        k(   14) = (  -0.0994786  -0.1735093   0.0000000), wk =   0.0800000
        k(   15) = (   0.0000000  -0.1156728   0.0000000), wk =   0.0400000
        k(   16) = (   0.3979146   0.0000000   0.0000000), wk =   0.0400000
        k(   17) = (   0.4973932   0.0578364   0.0000000), wk =   0.0800000
        k(   18) = (   0.5968718   0.1156728   0.0000000), wk =   0.0800000
        k(   19) = (  -0.2984359  -0.4048549   0.0000000), wk =   0.0800000
        k(   20) = (  -0.1989573  -0.3470185   0.0000000), wk =   0.0800000
        k(   21) = (  -0.0994786  -0.2891821   0.0000000), wk =   0.0800000
        k(   22) = (   0.0000000  -0.2313457   0.0000000), wk =   0.0400000
        k(   23) = (   0.5968718   0.0000000   0.0000000), wk =   0.0400000
        k(   24) = (   0.6963505   0.0578364   0.0000000), wk =   0.0800000
        k(   25) = (  -0.1989573  -0.4626914   0.0000000), wk =   0.0800000
        k(   26) = (  -0.0994786  -0.4048549   0.0000000), wk =   0.0800000
        k(   27) = (  -0.0000000  -0.3470185   0.0000000), wk =   0.0400000
        k(   28) = (   0.7958291   0.0000000   0.0000000), wk =   0.0400000
        k(   29) = (  -0.0994786  -0.5205278   0.0000000), wk =   0.0800000
        k(   30) = (   0.0000000  -0.4626914   0.0000000), wk =   0.0400000
        k(   31) = (  -0.9947864   0.0000000   0.0000000), wk =   0.0200000

                       cryst. coord.
        k(    1) = (   0.0000000   0.0000000   0.0000000), wk =   0.0200000
        k(    2) = (   0.0000000   0.1000000   0.0000000), wk =   0.0800000
        k(    3) = (   0.0000000   0.2000000   0.0000000), wk =   0.0800000
        k(    4) = (   0.0000000   0.3000000   0.0000000), wk =   0.0800000
        k(    5) = (   0.0000000   0.4000000   0.0000000), wk =   0.0800000
        k(    6) = (   0.0000000  -0.5000000   0.0000000), wk =   0.0400000
        k(    7) = (   0.1000000   0.1000000   0.0000000), wk =   0.0400000
        k(    8) = (   0.1000000   0.2000000   0.0000000), wk =   0.0800000
        k(    9) = (   0.1000000   0.3000000   0.0000000), wk =   0.0800000
        k(   10) = (   0.1000000   0.4000000   0.0000000), wk =   0.0800000
        k(   11) = (   0.1000000  -0.5000000   0.0000000), wk =   0.0800000
        k(   12) = (   0.1000000  -0.4000000   0.0000000), wk =   0.0800000
        k(   13) = (   0.1000000  -0.3000000   0.0000000), wk =   0.0800000
        k(   14) = (   0.1000000  -0.2000000   0.0000000), wk =   0.0800000
        k(   15) = (   0.1000000  -0.1000000   0.0000000), wk =   0.0400000
        k(   16) = (   0.2000000   0.2000000   0.0000000), wk =   0.0400000
        k(   17) = (   0.2000000   0.3000000   0.0000000), wk =   0.0800000
        k(   18) = (   0.2000000   0.4000000   0.0000000), wk =   0.0800000
        k(   19) = (   0.2000000  -0.5000000   0.0000000), wk =   0.0800000
        k(   20) = (   0.2000000  -0.4000000   0.0000000), wk =   0.0800000
        k(   21) = (   0.2000000  -0.3000000   0.0000000), wk =   0.0800000
        k(   22) = (   0.2000000  -0.2000000   0.0000000), wk =   0.0400000
        k(   23) = (   0.3000000   0.3000000   0.0000000), wk =   0.0400000
        k(   24) = (   0.3000000   0.4000000   0.0000000), wk =   0.0800000
        k(   25) = (   0.3000000  -0.5000000   0.0000000), wk =   0.0800000
        k(   26) = (   0.3000000  -0.4000000   0.0000000), wk =   0.0800000
        k(   27) = (   0.3000000  -0.3000000   0.0000000), wk =   0.0400000
        k(   28) = (   0.4000000   0.4000000   0.0000000), wk =   0.0400000
        k(   29) = (   0.4000000  -0.5000000   0.0000000), wk =   0.0800000
        k(   30) = (   0.4000000  -0.4000000   0.0000000), wk =   0.0400000
        k(   31) = (  -0.5000000  -0.5000000   0.0000000), wk =   0.0200000

     Dense  grid:    64713 G-vectors     FFT dimensions: (  36,  36, 120)

     Dynamical RAM for                 wfc:       1.25 MB

     Dynamical RAM for     wfc (w. buffer):      39.88 MB

     Dynamical RAM for           str. fact:       0.99 MB

     Dynamical RAM for           local pot:       0.00 MB

     Dynamical RAM for          nlocal pot:       5.61 MB

     Dynamical RAM for                qrad:       1.43 MB

     Dynamical RAM for          rho,v,vnew:       6.52 MB

     Dynamical RAM for               rhoin:       2.17 MB

     Dynamical RAM for            rho*nmix:      15.80 MB

     Dynamical RAM for           G-vectors:       4.20 MB

     Dynamical RAM for          h,s,v(r/c):       0.05 MB

     Dynamical RAM for          <psi|beta>:       0.00 MB

     Dynamical RAM for                 psi:       4.98 MB

     Dynamical RAM for                hpsi:       4.98 MB

     Dynamical RAM for                spsi:       4.98 MB

     Dynamical RAM for      wfcinit/wfcrot:       2.49 MB

     Dynamical RAM for           addusdens:     185.64 MB

     Dynamical RAM for          addusforce:     188.12 MB

     Dynamical RAM for         addusstress:     198.48 MB

     Estimated static dynamical RAM per process >      84.51 MB

     Estimated max dynamical RAM per process >     282.98 MB

     Initial potential from superposition of free atoms

     starting charge    7.99888, renormalised to    8.00000

     negative rho (up, down):  3.014E-06 0.000E+00
     Starting wfcs are    8 randomized atomic wfcs

     total cpu time spent up to now is        4.6 secs

     Self-consistent Calculation

     iteration #  1     ecut=    70.00 Ry     beta= 0.40
     Davidson diagonalization with overlap
     ethr =  1.00E-02,  avg # of iterations =  4.7

     Threshold (ethr) on eigenvalues was too large:
     Diagonalizing with lowered threshold

     Davidson diagonalization with overlap
     ethr =  9.18E-04,  avg # of iterations =  1.2

     negative rho (up, down):  1.988E-06 0.000E+00

     total cpu time spent up to now is       23.3 secs

     total energy              =     -22.74171983 Ry
     Harris-Foulkes estimate   =     -22.76157721 Ry
     estimated scf accuracy    <       0.07232563 Ry

     iteration #  2     ecut=    70.00 Ry     beta= 0.40
     Davidson diagonalization with overlap
     ethr =  9.04E-04,  avg # of iterations =  1.0

     negative rho (up, down):  2.415E-06 0.000E+00

     total cpu time spent up to now is       29.7 secs

     total energy              =     -22.73831654 Ry
     Harris-Foulkes estimate   =     -22.74403276 Ry
     estimated scf accuracy    <       0.01724510 Ry

     iteration #  3     ecut=    70.00 Ry     beta= 0.40
     Davidson diagonalization with overlap
     ethr =  2.16E-04,  avg # of iterations =  3.5

     negative rho (up, down):  1.722E-06 0.000E+00

     total cpu time spent up to now is       37.6 secs

     total energy              =     -22.74015857 Ry
     Harris-Foulkes estimate   =     -22.74035316 Ry
     estimated scf accuracy    <       0.00062281 Ry

     iteration #  4     ecut=    70.00 Ry     beta= 0.40
     Davidson diagonalization with overlap
     ethr =  7.79E-06,  avg # of iterations =  5.2

     negative rho (up, down):  1.887E-06 0.000E+00

     total cpu time spent up to now is       47.1 secs

     total energy              =     -22.74025213 Ry
     Harris-Foulkes estimate   =     -22.74034998 Ry
     estimated scf accuracy    <       0.00015912 Ry

     iteration #  5     ecut=    70.00 Ry     beta= 0.40
     Davidson diagonalization with overlap
     ethr =  1.99E-06,  avg # of iterations =  2.5

     negative rho (up, down):  1.960E-06 0.000E+00

     total cpu time spent up to now is       54.8 secs

     total energy              =     -22.74028377 Ry
     Harris-Foulkes estimate   =     -22.74028524 Ry
     estimated scf accuracy    <       0.00000358 Ry

     iteration #  6     ecut=    70.00 Ry     beta= 0.40
     Davidson diagonalization with overlap
     ethr =  4.47E-08,  avg # of iterations =  2.2

     negative rho (up, down):  1.970E-06 0.000E+00

     total cpu time spent up to now is       62.9 secs

     total energy              =     -22.74028466 Ry
     Harris-Foulkes estimate   =     -22.74028462 Ry
     estimated scf accuracy    <       0.00000012 Ry

     iteration #  7     ecut=    70.00 Ry     beta= 0.40
     Davidson diagonalization with overlap
     ethr =  1.46E-09,  avg # of iterations =  2.2

     negative rho (up, down):  1.965E-06 0.000E+00

     total cpu time spent up to now is       71.0 secs

     total energy              =     -22.74028467 Ry
     Harris-Foulkes estimate   =     -22.74028471 Ry
     estimated scf accuracy    <       0.00000011 Ry

     iteration #  8     ecut=    70.00 Ry     beta= 0.40
     Davidson diagonalization with overlap
     ethr =  1.32E-09,  avg # of iterations =  2.2

     negative rho (up, down):  1.963E-06 0.000E+00

     total cpu time spent up to now is       77.4 secs

     total energy              =     -22.74028467 Ry
     Harris-Foulkes estimate   =     -22.74028468 Ry
     estimated scf accuracy    <          6.7E-09 Ry

     iteration #  9     ecut=    70.00 Ry     beta= 0.40
     Davidson diagonalization with overlap
     ethr =  8.31E-11,  avg # of iterations =  2.2

     negative rho (up, down):  1.961E-06 0.000E+00

     total cpu time spent up to now is       85.1 secs

     End of self-consistent calculation

          k = 0.0000 0.0000 0.0000 ( 10265 PWs)   bands (ev):

   -13.2225  -4.8633  -3.4922  -3.3428   0.1596   0.8456   1.1130   1.3578

     occupation numbers 
     1.0000   1.0000   1.0000   1.0000   0.0000   0.0000   0.0000   0.0000

          k = 0.0995 0.0578 0.0000 ( 10247 PWs)   bands (ev):

   -13.1047  -4.7484  -4.2094  -3.6394   0.4584   1.2345   1.4830   1.4918

     occupation numbers 
     1.0000   1.0000   1.0000   1.0000   0.0000   0.0000   0.0000   0.0000

          k = 0.1990 0.1157 0.0000 ( 10218 PWs)   bands (ev):

   -12.7553  -5.7088  -4.4075  -4.0498   0.0098   1.8816   2.5313   2.5832

     occupation numbers 
     1.0000   1.0000   1.0000   1.0000   0.0000   0.0000   0.0000   0.0000

          k = 0.2984 0.1735 0.0000 ( 10204 PWs)   bands (ev):

   -12.1914  -7.2267  -4.4416  -3.8571  -0.4812   1.0431   2.5294   4.1424

     occupation numbers 
     1.0000   1.0000   1.0000   1.0000   0.0000   0.0000   0.0000   0.0000

          k = 0.3979 0.2313 0.0000 ( 10191 PWs)   bands (ev):

   -11.4771  -8.5441  -4.7048  -3.1614  -0.8128  -0.2474   3.4094   5.0860

     occupation numbers 
     1.0000   1.0000   1.0000   1.0000   0.0000   0.0000   0.0000   0.0000

          k =-0.4974-0.2892 0.0000 ( 10192 PWs)   bands (ev):

   -10.9948  -9.2314  -4.7962  -2.6961  -0.9279  -0.9154   4.2412   4.8298

     occupation numbers 
     1.0000   1.0000   1.0000   1.0000   0.0000   0.0000   0.0000   0.0000

          k = 0.1990 0.0000 0.0000 ( 10225 PWs)   bands (ev):

   -12.8733  -5.1846  -4.5224  -4.1215   0.8461   1.1125   1.7502   2.9154

     occupation numbers 
     1.0000   1.0000   1.0000   1.0000   0.0000   0.0000   0.0000   0.0000

          k = 0.2984 0.0578 0.0000 ( 10206 PWs)   bands (ev):

   -12.4171  -6.5540  -4.6762  -4.0770   0.4562   1.6593   2.2607   2.3259

     occupation numbers 
     1.0000   1.0000   1.0000   1.0000   0.0000   0.0000   0.0000   0.0000

          k = 0.3979 0.1157 0.0000 ( 10215 PWs)   bands (ev):

   -11.7663  -7.9266  -5.0804  -3.4420   0.0628   0.3311   3.0328   3.9694

     occupation numbers 
     1.0000   1.0000   1.0000   1.0000   0.0000   0.0000   0.0000   0.0000

          k = 0.4974 0.1735 0.0000 ( 10209 PWs)   bands (ev):

   -11.0628  -9.0187  -5.2819  -2.7595  -0.7258  -0.1544   3.9803   4.1052

     occupation numbers 
     1.0000   1.0000   1.0000   1.0000   0.0000   0.0000   0.0000   0.0000

          k =-0.3979-0.3470 0.0000 ( 10204 PWs)   bands (ev):

   -11.0489  -9.0424  -5.2665  -2.7475  -0.7454  -0.1616   3.9925   4.1291

     occupation numbers 
     1.0000   1.0000   1.0000   1.0000   0.0000   0.0000   0.0000   0.0000

          k =-0.2984-0.2892 0.0000 ( 10208 PWs)   bands (ev):

   -11.7494  -7.9749  -5.0328  -3.4271   0.0431   0.2938   3.0434   3.8862

     occupation numbers 
     1.0000   1.0000   1.0000   1.0000   0.0000   0.0000   0.0000   0.0000

          k =-0.1990-0.2313 0.0000 ( 10202 PWs)   bands (ev):

   -12.4046  -6.6253  -4.5931  -4.0659   0.4332   1.6137   2.2389   2.2796

     occupation numbers 
     1.0000   1.0000   1.0000   1.0000   0.0000   0.0000   0.0000   0.0000

          k =-0.0995-0.1735 0.0000 ( 10218 PWs)   bands (ev):

   -12.8658  -5.2818  -4.5158  -4.0062   0.9070   0.9848   1.7541   2.9040

     occupation numbers 
     1.0000   1.0000   1.0000   1.0000   0.0000   0.0000   0.0000   0.0000

          k = 0.0000-0.1157 0.0000 ( 10245 PWs)   bands (ev):

   -13.1022  -4.7462  -4.2830  -3.5567   0.4569   1.2979   1.3878   1.4912

     occupation numbers 
     1.0000   1.0000   1.0000   1.0000   0.0000   0.0000   0.0000   0.0000

          k = 0.3979 0.0000 0.0000 ( 10234 PWs)   bands (ev):

   -11.8668  -7.5574  -5.4858  -3.5397   0.6441   1.5409   2.1812   2.9088

     occupation numbers 
     1.0000   1.0000   1.0000   1.0000   0.0000   0.0000   0.0000   0.0000

          k = 0.4974 0.0578 0.0000 ( 10218 PWs)   bands (ev):

   -11.1559  -8.6249  -5.9924  -2.8473  -0.3915   1.5069   3.1959   3.6287

     occupation numbers 
     1.0000   1.0000   1.0000   1.0000   0.0000   0.0000   0.0000   0.0000

          k = 0.5969 0.1157 0.0000 ( 10199 PWs)   bands (ev):

   -10.6175  -9.3139  -6.1387  -2.3289  -1.0468   1.4194   3.0098   4.4507

     occupation numbers 
     1.0000   1.0000   1.0000   1.0410   0.0000   0.0000   0.0000   0.0000

          k =-0.2984-0.4049 0.0000 ( 10206 PWs)   bands (ev):

   -11.1149  -8.7073  -5.9424  -2.8119  -0.4547   1.5067   3.2412   3.5360

     occupation numbers 
     1.0000   1.0000   1.0000   1.0000   0.0000   0.0000   0.0000   0.0000

          k =-0.1990-0.3470 0.0000 ( 10216 PWs)   bands (ev):

   -11.8339  -7.6635  -5.3972  -3.5109   0.5712   1.6309   1.9756   2.9249

     occupation numbers 
     1.0000   1.0000   1.0000   1.0000   0.0000   0.0000   0.0000   0.0000

          k =-0.0995-0.2892 0.0000 ( 10208 PWs)   bands (ev):

   -12.3954  -6.6492  -4.5864  -4.0579   0.4539   1.6023   2.2154   2.2808

     occupation numbers 
     1.0000   1.0000   1.0000   1.0000   0.0000   0.0000   0.0000   0.0000

          k = 0.0000-0.2313 0.0000 ( 10217 PWs)   bands (ev):

   -12.7446  -5.7664  -4.3981  -3.9991   0.0314   1.8878   2.4543   2.5068

     occupation numbers 
     1.0000   1.0000   1.0000   1.0000   0.0000   0.0000   0.0000   0.0000

          k = 0.5969 0.0000 0.0000 ( 10202 PWs)   bands (ev):

   -10.4307  -9.3685  -6.5438  -2.1418  -1.1346   2.5655   3.0420   3.7253

     occupation numbers 
     1.0000   1.0000   1.0000   1.0451   0.0000   0.0000   0.0000   0.0000

          k = 0.6964 0.0578 0.0000 ( 10186 PWs)   bands (ev):

   -10.3426  -9.4832  -6.5161  -2.0683  -1.2246   2.5848   3.1191   3.5419

     occupation numbers 
     1.0000   1.0000   1.0000   0.8949   0.0000   0.0000   0.0000   0.0000

          k =-0.1990-0.4627 0.0000 ( 10212 PWs)   bands (ev):

   -11.0834  -8.7544  -5.9328  -2.7855  -0.4883   1.4837   3.2395   3.5644

     occupation numbers 
     1.0000   1.0000   1.0000   1.0000   0.0000   0.0000   0.0000   0.0000

          k =-0.0995-0.4049 0.0000 ( 10191 PWs)   bands (ev):

   -11.7174  -8.0278  -5.0275  -3.3997   0.0400   0.2585   3.0571   3.8859

     occupation numbers 
     1.0000   1.0000   1.0000   1.0000   0.0000   0.0000   0.0000   0.0000

          k =-0.0000-0.3470 0.0000 ( 10179 PWs)   bands (ev):

   -12.1633  -7.2902  -4.4161  -3.8327  -0.4790   1.0029   2.5434   4.0572

     occupation numbers 
     1.0000   1.0000   1.0000   1.0000   0.0000   0.0000   0.0000   0.0000

          k = 0.7958 0.0000 0.0000 ( 10176 PWs)   bands (ev):

   -10.4825  -9.4838  -6.1089  -2.2207  -1.1751   1.3863   3.0241   4.5314

     occupation numbers 
     1.0000   1.0000   1.0000   1.0828   0.0000   0.0000   0.0000   0.0000

          k =-0.0995-0.5205 0.0000 ( 10192 PWs)   bands (ev):

   -10.9518  -9.1677  -5.2550  -2.6675  -0.8396  -0.1810   4.0268   4.1161

     occupation numbers 
     1.0000   1.0000   1.0000   1.0000   0.0000   0.0000   0.0000   0.0000

          k = 0.0000-0.4627 0.0000 ( 10190 PWs)   bands (ev):

   -11.4091  -8.6428  -4.6931  -3.1037  -0.8243  -0.3204   3.4366   5.0995

     occupation numbers 
     1.0000   1.0000   1.0000   1.0000   0.0000   0.0000   0.0000   0.0000

          k =-0.9948 0.0000 0.0000 ( 10202 PWs)   bands (ev):

   -10.8576  -9.3982  -4.7889  -2.5850  -1.0418  -0.9440   4.3100   4.8105

     occupation numbers 
     1.0000   1.0000   1.0000   1.0004   0.0000   0.0000   0.0000   0.0000

     the Fermi energy is    -1.9283 ev

!    total energy              =     -22.74028467 Ry
     Harris-Foulkes estimate   =     -22.74028468 Ry
     estimated scf accuracy    <          3.5E-10 Ry

     The total energy is the sum of the following terms:

     one-electron contribution =     -39.49722362 Ry
     hartree contribution      =      20.98683623 Ry
     xc contribution           =     -12.21477124 Ry
     ewald contribution        =       7.98458886 Ry
     smearing contrib. (-TS)   =       0.00028510 Ry

     convergence has been achieved in   9 iterations

     negative rho (up, down):  1.961E-06 0.000E+00

     Forces acting on atoms (cartesian axes, Ry/au):

     atom    1 type  1   force =     0.00000000    0.02202694    0.00000000
     atom    2 type  1   force =     0.00000000   -0.02202694    0.00000000
     The non-local contrib.  to forces
     atom    1 type  1   force =     0.00000000    0.02352626    0.00000000
     atom    2 type  1   force =     0.00000000   -0.02356898    0.00000000
     The ionic contribution  to forces
     atom    1 type  1   force =    -0.00000000    0.06637603   -0.00000000
     atom    2 type  1   force =     0.00000000   -0.06637603   -0.00000000
     The local contribution  to forces
     atom    1 type  1   force =     0.00000000   -0.06512816    0.00000000
     atom    2 type  1   force =     0.00000000    0.06513428    0.00000000
     The core correction contribution to forces
     atom    1 type  1   force =     0.00000000   -0.00275886    0.00000000
     atom    2 type  1   force =    -0.00000000    0.00277315    0.00000000
     The Hubbard contrib.    to forces
     atom    1 type  1   force =     0.00000000    0.00000000    0.00000000
     atom    2 type  1   force =     0.00000000    0.00000000    0.00000000
     The SCF correction term to forces
     atom    1 type  1   force =    -0.00000000    0.00000051   -0.00000000
     atom    2 type  1   force =     0.00000000   -0.00000053   -0.00000000

     Total force =     0.031151     Total SCF correction =     0.000001


     Computing stress (Cartesian axis) and pressure


     negative rho (up, down):  1.961E-06 0.000E+00
          total   stress  (Ry/bohr**3)                   (kbar)     P=   12.46
   0.00008735   0.00000000   0.00000000         12.85      0.00      0.00
   0.00000000   0.00016672   0.00000000          0.00     24.53      0.00
   0.00000000   0.00000000  -0.00000004          0.00      0.00     -0.01

     kinetic stress (kbar)    527.62      0.00      0.00
                                0.00    525.46     -0.00
                                0.00      0.00    656.14

     local   stress (kbar)  -6541.58     -0.00      0.00
                               -0.00  -6588.55     -0.00
                                0.00     -0.00   6824.17

     nonloc. stress (kbar)    447.73      0.00      0.00
                                0.00    454.64      0.00
                                0.00      0.00    379.04

     hartree stress (kbar)   2913.56      0.00     -0.00
                                0.00   2919.88      0.00
                               -0.00      0.00  -2842.71

     exc-cor stress (kbar)    778.06      0.00     -0.00
                                0.00    778.41     -0.00
                               -0.00     -0.00    768.95

     corecor stress (kbar)  -1036.27     -0.00      0.00
                               -0.00  -1037.17      0.00
                                0.00      0.00  -1027.86

     ewald   stress (kbar)   2923.73      0.00     -0.00
                                0.00   2971.85     -0.00
                               -0.00     -0.00  -4757.74

     hubbard stress (kbar)      0.00      0.00      0.00
                                0.00      0.00      0.00
                                0.00      0.00      0.00

     london  stress (kbar)      0.00      0.00      0.00
                                0.00      0.00      0.00
                                0.00      0.00      0.00

     DFT-D3  stress (kbar)      0.00      0.00      0.00
                                0.00      0.00      0.00
                                0.00      0.00      0.00

     XDM     stress (kbar)      0.00      0.00      0.00
                                0.00      0.00      0.00
                                0.00      0.00      0.00

     dft-nl  stress (kbar)      0.00      0.00      0.00
                                0.00      0.00      0.00
                                0.00      0.00      0.00

     TS-vdW  stress (kbar)      0.00      0.00      0.00
                                0.00      0.00      0.00
                                0.00      0.00      0.00



     Writing output data file silicene.save/

     init_run     :      4.00s CPU      4.10s WALL (       1 calls)
     electrons    :     79.33s CPU     80.44s WALL (       1 calls)
     forces       :      1.75s CPU      1.77s WALL (       1 calls)
     stress       :      4.43s CPU      4.55s WALL (       1 calls)

     Called by init_run:
     wfcinit      :      2.76s CPU      2.80s WALL (       1 calls)
     wfcinit:atom :      0.07s CPU      0.07s WALL (      31 calls)
     wfcinit:wfcr :      2.40s CPU      2.43s WALL (      31 calls)
     potinit      :      0.31s CPU      0.31s WALL (       1 calls)
     hinit0       :      0.64s CPU      0.65s WALL (       1 calls)

     Called by electrons:
     c_bands      :     64.79s CPU     65.23s WALL (      10 calls)
     sum_band     :     12.33s CPU     12.82s WALL (      10 calls)
     v_of_rho     :      0.74s CPU      0.74s WALL (      10 calls)
     v_h          :      0.05s CPU      0.05s WALL (      10 calls)
     v_xc         :      0.82s CPU      0.83s WALL (      12 calls)
     newd         :      1.75s CPU      1.94s WALL (      10 calls)
     mix_rho      :      0.10s CPU      0.11s WALL (      10 calls)

     Called by c_bands:
     init_us_2    :      2.51s CPU      2.52s WALL (     713 calls)
     cegterg      :     56.84s CPU     57.25s WALL (     310 calls)

     Called by sum_band:
     sum_band:bec :      0.01s CPU      0.01s WALL (     310 calls)
     addusdens    :      2.23s CPU      2.70s WALL (      10 calls)

     Called by *egterg:
     h_psi        :     45.23s CPU     45.60s WALL (    1175 calls)
     s_psi        :      5.60s CPU      5.63s WALL (    1175 calls)
     g_psi        :      0.30s CPU      0.30s WALL (     834 calls)
     cdiaghg      :      0.17s CPU      0.17s WALL (    1113 calls)
     cegterg:over :      3.04s CPU      3.05s WALL (     834 calls)
     cegterg:upda :      2.09s CPU      2.10s WALL (     834 calls)
     cegterg:last :      1.26s CPU      1.28s WALL (     313 calls)

     Called by h_psi:
     h_psi:pot    :     45.05s CPU     45.41s WALL (    1175 calls)
     h_psi:calbec :      5.67s CPU      5.71s WALL (    1175 calls)
     vloc_psi     :     33.88s CPU     34.21s WALL (    1175 calls)
     add_vuspsi   :      5.49s CPU      5.49s WALL (    1175 calls)

     General routines
     calbec       :      8.82s CPU      8.88s WALL (    1640 calls)
     fft          :      0.47s CPU      0.47s WALL (     136 calls)
     ffts         :      0.03s CPU      0.03s WALL (      10 calls)
     fftw         :     35.28s CPU     35.59s WALL (   15738 calls)

     Parallel routines

     PWSCF        :   1m30.09s CPU   1m31.45s WALL


   This run was terminated on:  21:13:54  22Sep2023            

=------------------------------------------------------------------------------=
   JOB DONE.
=------------------------------------------------------------------------------=
