
     Program PWSCF v.6.4.1 starts on 22Sep2023 at 22:23:25 

     This program is part of the open-source Quantum ESPRESSO suite
     for quantum simulation of materials; please cite
         "P. Giannozzi et al., J. Phys.:Condens. Matter 21 395502 (2009);
         "P. Giannozzi et al., J. Phys.:Condens. Matter 29 465901 (2017);
          URL http://www.quantum-espresso.org", 
     in publications or presentations arising from this work. More details at
     http://www.quantum-espresso.org/quote

     Parallel version (MPI), running on     1 processors

     MPI processes distributed on     1 nodes
     Reading input from silicene_relax.in

     Current dimensions of program PWSCF are:
     Max number of different atomic species (ntypx) = 10
     Max number of k-points (npk) =  40000
     Max angular momentum in pseudopotentials (lmaxx) =  3
     Message from routine read_upf::
     Pseudo file Si.pbe-n-rrkjus_psl.1.0.0.UPF has been fixed on the fly.
To avoid this message in the future, permanently fix 
 your pseudo files following these instructions: 
https://gitlab.com/QEF/q-e/blob/master/upftools/how_to_fix_upf.md

     Subspace diagonalization in iterative solution of the eigenvalue problem:
     a serial algorithm will be used

     Message from routine setup:
     DEPRECATED: symmetry with ibrav=0, use correct ibrav instead

     G-vector sticks info
     --------------------
     sticks:   dense  smooth     PW     G-vecs:    dense   smooth      PW
     Sum         859     729    227                64713    49339    8639



     bravais-lattice index     =            0
     lattice parameter (alat)  =       7.2375  a.u.
     unit-cell volume          =    1032.2806 (a.u.)^3
     number of atoms/cell      =            2
     number of atomic types    =            1
     number of electrons       =         8.00
     number of Kohn-Sham states=            8
     kinetic-energy cutoff     =      50.0000  Ry
     charge density cutoff     =     240.0000  Ry
     convergence threshold     =      4.0E-10
     mixing beta               =       0.4000
     number of iterations used =            8  plain     mixing
     Exchange-correlation      = PBE ( 1  4  3  4 0 0)
     nstep                     =           50


     celldm(1)=   7.237514  celldm(2)=   0.000000  celldm(3)=   0.000000
     celldm(4)=   0.000000  celldm(5)=   0.000000  celldm(6)=   0.000000

     crystal axes: (cart. coord. in units of alat)
               a(1) = (   0.502620  -0.864507   0.000000 )  
               a(2) = (   0.502620   0.864507   0.000000 )  
               a(3) = (   0.000000   0.000000   3.133218 )  

     reciprocal axes: (cart. coord. in units 2 pi/alat)
               b(1) = (  0.994786 -0.578364  0.000000 )  
               b(2) = (  0.994786  0.578364 -0.000000 )  
               b(3) = ( -0.000000  0.000000  0.319161 )  


     PseudoPot. # 1 for Si read from file:
     /home/meyn/q-e-qe-7.1/pseudo/Si.pbe-n-rrkjus_psl.1.0.0.UPF
     MD5 check sum: 56671f82560c68743c116fe4c72cdc4c
     Pseudo is Ultrasoft + core correction, Zval =  4.0
     Generated using "atomic" code by A. Dal Corso v.5.1.2
     Using radial grid of 1141 points,  6 beta functions with: 
                l(1) =   0
                l(2) =   0
                l(3) =   1
                l(4) =   1
                l(5) =   2
                l(6) =   2
     Q(r) pseudized with 0 coefficients 


     atomic species   valence    mass     pseudopotential
        Si             4.00    28.08550     Si( 1.00)

      4 Sym. Ops. (no inversion) found


                                    s                        frac. trans.

      isym =  1     identity                                     

 cryst.   s( 1) = (     1          0          0      )
                  (     0          1          0      )
                  (     0          0          1      )

 cart.    s( 1) = (  1.0000000  0.0000000  0.0000000 )
                  (  0.0000000  1.0000000  0.0000000 )
                  (  0.0000000  0.0000000  1.0000000 )


      isym =  2     180 deg rotation - cart. axis [0,1,0]        

 cryst.   s( 2) = (     0         -1          0      )
                  (    -1          0          0      )
                  (     0          0         -1      )

 cart.    s( 2) = ( -1.0000000  0.0000000  0.0000000 )
                  (  0.0000000  1.0000000  0.0000000 )
                  (  0.0000000  0.0000000 -1.0000000 )


      isym =  3     inv. 180 deg rotation - cart. axis [0,0,1]   

 cryst.   s( 3) = (     1          0          0      )
                  (     0          1          0      )
                  (     0          0         -1      )

 cart.    s( 3) = (  1.0000000  0.0000000  0.0000000 )
                  (  0.0000000  1.0000000  0.0000000 )
                  (  0.0000000  0.0000000 -1.0000000 )


      isym =  4     inv. 180 deg rotation - cart. axis [1,0,0]   

 cryst.   s( 4) = (     0         -1          0      )
                  (    -1          0          0      )
                  (     0          0          1      )

 cart.    s( 4) = ( -1.0000000  0.0000000  0.0000000 )
                  (  0.0000000  1.0000000  0.0000000 )
                  (  0.0000000  0.0000000  1.0000000 )


   Cartesian axes

     site n.     atom                  positions (alat units)
         1           Si  tau(   1) = (   0.0000000   0.0000000   0.0000000  )
         2           Si  tau(   2) = (   0.5026205   0.2939324   0.0000000  )

   Crystallographic axes

     site n.     atom                  positions (cryst. coord.)
         1           Si  tau(   1) = (  0.0000000  0.0000000  0.0000000  )
         2           Si  tau(   2) = (  0.3300000  0.6700000  0.0000000  )

     number of k points=    31  Marzari-Vanderbilt smearing, width (Ry)=  0.0147
                       cart. coord. in units 2pi/alat
        k(    1) = (   0.0000000   0.0000000   0.0000000), wk =   0.0200000
        k(    2) = (   0.0994786   0.0578364   0.0000000), wk =   0.0800000
        k(    3) = (   0.1989573   0.1156728   0.0000000), wk =   0.0800000
        k(    4) = (   0.2984359   0.1735093   0.0000000), wk =   0.0800000
        k(    5) = (   0.3979146   0.2313457   0.0000000), wk =   0.0800000
        k(    6) = (  -0.4973932  -0.2891821   0.0000000), wk =   0.0400000
        k(    7) = (   0.1989573   0.0000000   0.0000000), wk =   0.0400000
        k(    8) = (   0.2984359   0.0578364   0.0000000), wk =   0.0800000
        k(    9) = (   0.3979146   0.1156728   0.0000000), wk =   0.0800000
        k(   10) = (   0.4973932   0.1735093   0.0000000), wk =   0.0800000
        k(   11) = (  -0.3979146  -0.3470185   0.0000000), wk =   0.0800000
        k(   12) = (  -0.2984359  -0.2891821   0.0000000), wk =   0.0800000
        k(   13) = (  -0.1989573  -0.2313457   0.0000000), wk =   0.0800000
        k(   14) = (  -0.0994786  -0.1735093   0.0000000), wk =   0.0800000
        k(   15) = (   0.0000000  -0.1156728   0.0000000), wk =   0.0400000
        k(   16) = (   0.3979146   0.0000000   0.0000000), wk =   0.0400000
        k(   17) = (   0.4973932   0.0578364   0.0000000), wk =   0.0800000
        k(   18) = (   0.5968718   0.1156728   0.0000000), wk =   0.0800000
        k(   19) = (  -0.2984359  -0.4048549   0.0000000), wk =   0.0800000
        k(   20) = (  -0.1989573  -0.3470185   0.0000000), wk =   0.0800000
        k(   21) = (  -0.0994786  -0.2891821   0.0000000), wk =   0.0800000
        k(   22) = (   0.0000000  -0.2313457   0.0000000), wk =   0.0400000
        k(   23) = (   0.5968718   0.0000000   0.0000000), wk =   0.0400000
        k(   24) = (   0.6963505   0.0578364   0.0000000), wk =   0.0800000
        k(   25) = (  -0.1989573  -0.4626914   0.0000000), wk =   0.0800000
        k(   26) = (  -0.0994786  -0.4048549   0.0000000), wk =   0.0800000
        k(   27) = (  -0.0000000  -0.3470185   0.0000000), wk =   0.0400000
        k(   28) = (   0.7958291   0.0000000   0.0000000), wk =   0.0400000
        k(   29) = (  -0.0994786  -0.5205278   0.0000000), wk =   0.0800000
        k(   30) = (   0.0000000  -0.4626914   0.0000000), wk =   0.0400000
        k(   31) = (  -0.9947864   0.0000000   0.0000000), wk =   0.0200000

                       cryst. coord.
        k(    1) = (   0.0000000   0.0000000   0.0000000), wk =   0.0200000
        k(    2) = (   0.0000000   0.1000000   0.0000000), wk =   0.0800000
        k(    3) = (   0.0000000   0.2000000   0.0000000), wk =   0.0800000
        k(    4) = (   0.0000000   0.3000000   0.0000000), wk =   0.0800000
        k(    5) = (   0.0000000   0.4000000   0.0000000), wk =   0.0800000
        k(    6) = (   0.0000000  -0.5000000   0.0000000), wk =   0.0400000
        k(    7) = (   0.1000000   0.1000000   0.0000000), wk =   0.0400000
        k(    8) = (   0.1000000   0.2000000   0.0000000), wk =   0.0800000
        k(    9) = (   0.1000000   0.3000000   0.0000000), wk =   0.0800000
        k(   10) = (   0.1000000   0.4000000   0.0000000), wk =   0.0800000
        k(   11) = (   0.1000000  -0.5000000   0.0000000), wk =   0.0800000
        k(   12) = (   0.1000000  -0.4000000   0.0000000), wk =   0.0800000
        k(   13) = (   0.1000000  -0.3000000   0.0000000), wk =   0.0800000
        k(   14) = (   0.1000000  -0.2000000   0.0000000), wk =   0.0800000
        k(   15) = (   0.1000000  -0.1000000   0.0000000), wk =   0.0400000
        k(   16) = (   0.2000000   0.2000000   0.0000000), wk =   0.0400000
        k(   17) = (   0.2000000   0.3000000   0.0000000), wk =   0.0800000
        k(   18) = (   0.2000000   0.4000000   0.0000000), wk =   0.0800000
        k(   19) = (   0.2000000  -0.5000000   0.0000000), wk =   0.0800000
        k(   20) = (   0.2000000  -0.4000000   0.0000000), wk =   0.0800000
        k(   21) = (   0.2000000  -0.3000000   0.0000000), wk =   0.0800000
        k(   22) = (   0.2000000  -0.2000000   0.0000000), wk =   0.0400000
        k(   23) = (   0.3000000   0.3000000   0.0000000), wk =   0.0400000
        k(   24) = (   0.3000000   0.4000000   0.0000000), wk =   0.0800000
        k(   25) = (   0.3000000  -0.5000000   0.0000000), wk =   0.0800000
        k(   26) = (   0.3000000  -0.4000000   0.0000000), wk =   0.0800000
        k(   27) = (   0.3000000  -0.3000000   0.0000000), wk =   0.0400000
        k(   28) = (   0.4000000   0.4000000   0.0000000), wk =   0.0400000
        k(   29) = (   0.4000000  -0.5000000   0.0000000), wk =   0.0800000
        k(   30) = (   0.4000000  -0.4000000   0.0000000), wk =   0.0400000
        k(   31) = (  -0.5000000  -0.5000000   0.0000000), wk =   0.0200000

     Dense  grid:    64713 G-vectors     FFT dimensions: (  36,  36, 120)

     Smooth grid:    49339 G-vectors     FFT dimensions: (  36,  36, 108)

     Dynamical RAM for                 wfc:       0.75 MB

     Dynamical RAM for     wfc (w. buffer):      24.07 MB

     Dynamical RAM for           str. fact:       0.99 MB

     Dynamical RAM for           local pot:       0.00 MB

     Dynamical RAM for          nlocal pot:       3.39 MB

     Dynamical RAM for                qrad:       2.86 MB

     Dynamical RAM for          rho,v,vnew:       6.52 MB

     Dynamical RAM for               rhoin:       2.17 MB

     Dynamical RAM for            rho*nmix:      15.80 MB

     Dynamical RAM for           G-vectors:       4.08 MB

     Dynamical RAM for          h,s,v(r/c):       0.05 MB

     Dynamical RAM for          <psi|beta>:       0.00 MB

     Dynamical RAM for                 psi:       3.01 MB

     Dynamical RAM for                hpsi:       3.01 MB

     Dynamical RAM for                spsi:       3.01 MB

     Dynamical RAM for      wfcinit/wfcrot:       1.51 MB

     Dynamical RAM for           addusdens:     185.64 MB

     Dynamical RAM for          addusforce:     188.12 MB

     Dynamical RAM for         addusstress:     198.48 MB

     Estimated static dynamical RAM per process >      67.79 MB

     Estimated max dynamical RAM per process >     266.27 MB

     Initial potential from superposition of free atoms

     starting charge    7.99888, renormalised to    8.00000

     negative rho (up, down):  3.014E-06 0.000E+00
     Starting wfcs are    8 randomized atomic wfcs

     total cpu time spent up to now is        5.2 secs

     Self-consistent Calculation

     iteration #  1     ecut=    50.00 Ry     beta= 0.40
     Davidson diagonalization with overlap
     ethr =  1.00E-02,  avg # of iterations =  4.7

     Threshold (ethr) on eigenvalues was too large:
     Diagonalizing with lowered threshold

     Davidson diagonalization with overlap
     ethr =  9.18E-04,  avg # of iterations =  1.4

     negative rho (up, down):  1.976E-06 0.000E+00

     total cpu time spent up to now is       16.1 secs

     total energy              =     -22.74168547 Ry
     Harris-Foulkes estimate   =     -22.76155133 Ry
     estimated scf accuracy    <       0.07237192 Ry

     iteration #  2     ecut=    50.00 Ry     beta= 0.40
     Davidson diagonalization with overlap
     ethr =  9.05E-04,  avg # of iterations =  1.0

     negative rho (up, down):  1.995E-06 0.000E+00

     total cpu time spent up to now is       20.7 secs

     total energy              =     -22.73830579 Ry
     Harris-Foulkes estimate   =     -22.74400272 Ry
     estimated scf accuracy    <       0.01722007 Ry

     iteration #  3     ecut=    50.00 Ry     beta= 0.40
     Davidson diagonalization with overlap
     ethr =  2.15E-04,  avg # of iterations =  3.6

     negative rho (up, down):  1.429E-06 0.000E+00

     total cpu time spent up to now is       25.9 secs

     total energy              =     -22.74013064 Ry
     Harris-Foulkes estimate   =     -22.74032268 Ry
     estimated scf accuracy    <       0.00062042 Ry

     iteration #  4     ecut=    50.00 Ry     beta= 0.40
     Davidson diagonalization with overlap
     ethr =  7.76E-06,  avg # of iterations =  5.7

     negative rho (up, down):  1.666E-06 0.000E+00

     total cpu time spent up to now is       32.2 secs

     total energy              =     -22.74022206 Ry
     Harris-Foulkes estimate   =     -22.74031512 Ry
     estimated scf accuracy    <       0.00015163 Ry

     iteration #  5     ecut=    50.00 Ry     beta= 0.40
     Davidson diagonalization with overlap
     ethr =  1.90E-06,  avg # of iterations =  2.5

     negative rho (up, down):  1.819E-06 0.000E+00

     total cpu time spent up to now is       37.2 secs

     total energy              =     -22.74025219 Ry
     Harris-Foulkes estimate   =     -22.74025358 Ry
     estimated scf accuracy    <       0.00000344 Ry

     iteration #  6     ecut=    50.00 Ry     beta= 0.40
     Davidson diagonalization with overlap
     ethr =  4.30E-08,  avg # of iterations =  2.2

     negative rho (up, down):  1.880E-06 0.000E+00

     total cpu time spent up to now is       42.0 secs

     total energy              =     -22.74025304 Ry
     Harris-Foulkes estimate   =     -22.74025298 Ry
     estimated scf accuracy    <       0.00000009 Ry

     iteration #  7     ecut=    50.00 Ry     beta= 0.40
     Davidson diagonalization with overlap
     ethr =  1.08E-09,  avg # of iterations =  2.3

     negative rho (up, down):  1.911E-06 0.000E+00

     total cpu time spent up to now is       47.0 secs

     total energy              =     -22.74025304 Ry
     Harris-Foulkes estimate   =     -22.74025307 Ry
     estimated scf accuracy    <       0.00000007 Ry

     iteration #  8     ecut=    50.00 Ry     beta= 0.40
     Davidson diagonalization with overlap
     ethr =  8.51E-10,  avg # of iterations =  1.6

     negative rho (up, down):  1.930E-06 0.000E+00

     total cpu time spent up to now is       51.2 secs

     total energy              =     -22.74025304 Ry
     Harris-Foulkes estimate   =     -22.74025304 Ry
     estimated scf accuracy    <          3.9E-09 Ry

     iteration #  9     ecut=    50.00 Ry     beta= 0.40
     Davidson diagonalization with overlap
     ethr =  4.87E-11,  avg # of iterations =  2.4

     negative rho (up, down):  1.963E-06 0.000E+00

     total cpu time spent up to now is       56.3 secs

     End of self-consistent calculation

          k = 0.0000 0.0000 0.0000 (  6153 PWs)   bands (ev):

   -13.2226  -4.8634  -3.4923  -3.3429   0.1595   0.8456   1.1130   1.3578

     occupation numbers 
     1.0000   1.0000   1.0000   1.0000   0.0000   0.0000   0.0000   0.0000

          k = 0.0995 0.0578 0.0000 (  6134 PWs)   bands (ev):

   -13.1048  -4.7484  -4.2096  -3.6395   0.4583   1.2344   1.4830   1.4918

     occupation numbers 
     1.0000   1.0000   1.0000   1.0000   0.0000   0.0000   0.0000   0.0000

          k = 0.1990 0.1157 0.0000 (  6143 PWs)   bands (ev):

   -12.7554  -5.7089  -4.4075  -4.0499   0.0097   1.8816   2.5312   2.5832

     occupation numbers 
     1.0000   1.0000   1.0000   1.0000   0.0000   0.0000   0.0000   0.0000

          k = 0.2984 0.1735 0.0000 (  6179 PWs)   bands (ev):

   -12.1915  -7.2269  -4.4418  -3.8571  -0.4812   1.0430   2.5294   4.1424

     occupation numbers 
     1.0000   1.0000   1.0000   1.0000   0.0000   0.0000   0.0000   0.0000

          k = 0.3979 0.2313 0.0000 (  6184 PWs)   bands (ev):

   -11.4773  -8.5442  -4.7049  -3.1614  -0.8129  -0.2474   3.4094   5.0860

     occupation numbers 
     1.0000   1.0000   1.0000   1.0000   0.0000   0.0000   0.0000   0.0000

          k =-0.4974-0.2892 0.0000 (  6178 PWs)   bands (ev):

   -10.9949  -9.2315  -4.7963  -2.6961  -0.9280  -0.9155   4.2411   4.8297

     occupation numbers 
     1.0000   1.0000   1.0000   1.0000   0.0000   0.0000   0.0000   0.0000

          k = 0.1990 0.0000 0.0000 (  6142 PWs)   bands (ev):

   -12.8734  -5.1848  -4.5225  -4.1216   0.8461   1.1125   1.7502   2.9154

     occupation numbers 
     1.0000   1.0000   1.0000   1.0000   0.0000   0.0000   0.0000   0.0000

          k = 0.2984 0.0578 0.0000 (  6142 PWs)   bands (ev):

   -12.4172  -6.5541  -4.6763  -4.0770   0.4562   1.6593   2.2607   2.3259

     occupation numbers 
     1.0000   1.0000   1.0000   1.0000   0.0000   0.0000   0.0000   0.0000

          k = 0.3979 0.1157 0.0000 (  6168 PWs)   bands (ev):

   -11.7664  -7.9268  -5.0805  -3.4420   0.0628   0.3311   3.0328   3.9693

     occupation numbers 
     1.0000   1.0000   1.0000   1.0000   0.0000   0.0000   0.0000   0.0000

          k = 0.4974 0.1735 0.0000 (  6168 PWs)   bands (ev):

   -11.0629  -9.0188  -5.2820  -2.7595  -0.7259  -0.1544   3.9803   4.1052

     occupation numbers 
     1.0000   1.0000   1.0000   1.0000   0.0000   0.0000   0.0000   0.0000

          k =-0.3979-0.3470 0.0000 (  6178 PWs)   bands (ev):

   -11.0491  -9.0425  -5.2666  -2.7475  -0.7454  -0.1617   3.9924   4.1291

     occupation numbers 
     1.0000   1.0000   1.0000   1.0000   0.0000   0.0000   0.0000   0.0000

          k =-0.2984-0.2892 0.0000 (  6176 PWs)   bands (ev):

   -11.7495  -7.9750  -5.0329  -3.4271   0.0431   0.2937   3.0434   3.8862

     occupation numbers 
     1.0000   1.0000   1.0000   1.0000   0.0000   0.0000   0.0000   0.0000

          k =-0.1990-0.2313 0.0000 (  6151 PWs)   bands (ev):

   -12.4047  -6.6254  -4.5932  -4.0660   0.4332   1.6136   2.2389   2.2796

     occupation numbers 
     1.0000   1.0000   1.0000   1.0000   0.0000   0.0000   0.0000   0.0000

          k =-0.0995-0.1735 0.0000 (  6131 PWs)   bands (ev):

   -12.8659  -5.2819  -4.5159  -4.0063   0.9069   0.9848   1.7541   2.9040

     occupation numbers 
     1.0000   1.0000   1.0000   1.0000   0.0000   0.0000   0.0000   0.0000

          k = 0.0000-0.1157 0.0000 (  6166 PWs)   bands (ev):

   -13.1023  -4.7463  -4.2832  -3.5568   0.4568   1.2978   1.3877   1.4912

     occupation numbers 
     1.0000   1.0000   1.0000   1.0000   0.0000   0.0000   0.0000   0.0000

          k = 0.3979 0.0000 0.0000 (  6178 PWs)   bands (ev):

   -11.8669  -7.5576  -5.4859  -3.5398   0.6440   1.5408   2.1811   2.9087

     occupation numbers 
     1.0000   1.0000   1.0000   1.0000   0.0000   0.0000   0.0000   0.0000

          k = 0.4974 0.0578 0.0000 (  6177 PWs)   bands (ev):

   -11.1560  -8.6250  -5.9925  -2.8474  -0.3915   1.5069   3.1959   3.6286

     occupation numbers 
     1.0000   1.0000   1.0000   1.0000   0.0000   0.0000   0.0000   0.0000

          k = 0.5969 0.1157 0.0000 (  6153 PWs)   bands (ev):

   -10.6176  -9.3141  -6.1388  -2.3289  -1.0468   1.4193   3.0098   4.4507

     occupation numbers 
     1.0000   1.0000   1.0000   1.0410   0.0000   0.0000   0.0000   0.0000

          k =-0.2984-0.4049 0.0000 (  6179 PWs)   bands (ev):

   -11.1150  -8.7074  -5.9425  -2.8119  -0.4548   1.5067   3.2412   3.5360

     occupation numbers 
     1.0000   1.0000   1.0000   1.0000   0.0000   0.0000   0.0000   0.0000

          k =-0.1990-0.3470 0.0000 (  6170 PWs)   bands (ev):

   -11.8340  -7.6636  -5.3973  -3.5110   0.5711   1.6309   1.9755   2.9249

     occupation numbers 
     1.0000   1.0000   1.0000   1.0000   0.0000   0.0000   0.0000   0.0000

          k =-0.0995-0.2892 0.0000 (  6164 PWs)   bands (ev):

   -12.3955  -6.6493  -4.5865  -4.0580   0.4539   1.6023   2.2154   2.2808

     occupation numbers 
     1.0000   1.0000   1.0000   1.0000   0.0000   0.0000   0.0000   0.0000

          k = 0.0000-0.2313 0.0000 (  6144 PWs)   bands (ev):

   -12.7447  -5.7665  -4.3981  -3.9992   0.0314   1.8877   2.4543   2.5067

     occupation numbers 
     1.0000   1.0000   1.0000   1.0000   0.0000   0.0000   0.0000   0.0000

          k = 0.5969 0.0000 0.0000 (  6174 PWs)   bands (ev):

   -10.4308  -9.3686  -6.5439  -2.1418  -1.1346   2.5655   3.0420   3.7252

     occupation numbers 
     1.0000   1.0000   1.0000   1.0451   0.0000   0.0000   0.0000   0.0000

          k = 0.6964 0.0578 0.0000 (  6168 PWs)   bands (ev):

   -10.3427  -9.4833  -6.5162  -2.0684  -1.2246   2.5848   3.1191   3.5419

     occupation numbers 
     1.0000   1.0000   1.0000   0.8949   0.0000   0.0000   0.0000   0.0000

          k =-0.1990-0.4627 0.0000 (  6172 PWs)   bands (ev):

   -11.0835  -8.7545  -5.9329  -2.7855  -0.4884   1.4837   3.2395   3.5643

     occupation numbers 
     1.0000   1.0000   1.0000   1.0000   0.0000   0.0000   0.0000   0.0000

          k =-0.0995-0.4049 0.0000 (  6186 PWs)   bands (ev):

   -11.7175  -8.0279  -5.0276  -3.3998   0.0400   0.2585   3.0571   3.8858

     occupation numbers 
     1.0000   1.0000   1.0000   1.0000   0.0000   0.0000   0.0000   0.0000

          k =-0.0000-0.3470 0.0000 (  6182 PWs)   bands (ev):

   -12.1634  -7.2903  -4.4162  -3.8327  -0.4791   1.0029   2.5434   4.0572

     occupation numbers 
     1.0000   1.0000   1.0000   1.0000   0.0000   0.0000   0.0000   0.0000

          k = 0.7958 0.0000 0.0000 (  6138 PWs)   bands (ev):

   -10.4826  -9.4839  -6.1090  -2.2208  -1.1751   1.3863   3.0242   4.5314

     occupation numbers 
     1.0000   1.0000   1.0000   1.0828   0.0000   0.0000   0.0000   0.0000

          k =-0.0995-0.5205 0.0000 (  6188 PWs)   bands (ev):

   -10.9520  -9.1678  -5.2551  -2.6676  -0.8396  -0.1811   4.0268   4.1162

     occupation numbers 
     1.0000   1.0000   1.0000   1.0000   0.0000   0.0000   0.0000   0.0000

          k = 0.0000-0.4627 0.0000 (  6192 PWs)   bands (ev):

   -11.4093  -8.6429  -4.6932  -3.1038  -0.8244  -0.3204   3.4366   5.0996

     occupation numbers 
     1.0000   1.0000   1.0000   1.0000   0.0000   0.0000   0.0000   0.0000

          k =-0.9948 0.0000 0.0000 (  6154 PWs)   bands (ev):

   -10.8577  -9.3983  -4.7890  -2.5850  -1.0418  -0.9441   4.3099   4.8105

     occupation numbers 
     1.0000   1.0000   1.0000   1.0004   0.0000   0.0000   0.0000   0.0000

     the Fermi energy is    -1.9284 ev

!    total energy              =     -22.74025304 Ry
     Harris-Foulkes estimate   =     -22.74025304 Ry
     estimated scf accuracy    <          4.4E-11 Ry

     The total energy is the sum of the following terms:

     one-electron contribution =     -39.49723014 Ry
     hartree contribution      =      20.98688509 Ry
     xc contribution           =     -12.21478195 Ry
     ewald contribution        =       7.98458886 Ry
     smearing contrib. (-TS)   =       0.00028510 Ry

     convergence has been achieved in   9 iterations

     negative rho (up, down):  1.963E-06 0.000E+00

     Forces acting on atoms (cartesian axes, Ry/au):

     atom    1 type  1   force =     0.00000000    0.02202508    0.00000000
     atom    2 type  1   force =     0.00000000   -0.02202508    0.00000000
     The non-local contrib.  to forces
     atom    1 type  1   force =     0.00000000    0.02352442    0.00000000
     atom    2 type  1   force =     0.00000000   -0.02356749    0.00000000
     The ionic contribution  to forces
     atom    1 type  1   force =    -0.00000000    0.06637603   -0.00000000
     atom    2 type  1   force =     0.00000000   -0.06637603   -0.00000000
     The local contribution  to forces
     atom    1 type  1   force =     0.00000000   -0.06512866    0.00000000
     atom    2 type  1   force =     0.00000000    0.06513515    0.00000000
     The core correction contribution to forces
     atom    1 type  1   force =    -0.00000000   -0.00275997    0.00000000
     atom    2 type  1   force =    -0.00000000    0.00277327    0.00000000
     The Hubbard contrib.    to forces
     atom    1 type  1   force =     0.00000000    0.00000000    0.00000000
     atom    2 type  1   force =     0.00000000    0.00000000    0.00000000
     The SCF correction term to forces
     atom    1 type  1   force =    -0.00000000    0.00000165    0.00000000
     atom    2 type  1   force =    -0.00000000   -0.00000160    0.00000000

     Total force =     0.031148     Total SCF correction =     0.000002


     Computing stress (Cartesian axis) and pressure


     negative rho (up, down):  1.963E-06 0.000E+00
          total   stress  (Ry/bohr**3)                   (kbar)     P=   12.44
   0.00008724  -0.00000000   0.00000000         12.83     -0.00      0.00
   0.00000000   0.00016660   0.00000000          0.00     24.51      0.00
   0.00000000   0.00000000  -0.00000008          0.00      0.00     -0.01

     kinetic stress (kbar)    527.62     -0.00      0.00
                               -0.00    525.46      0.00
                                0.00      0.00    656.14

     local   stress (kbar)  -6541.61     -0.00      0.00
                               -0.00  -6588.57     -0.00
                                0.00     -0.00   6824.16

     nonloc. stress (kbar)    447.73      0.00      0.00
                                0.00    454.63      0.00
                                0.00      0.00    379.04

     hartree stress (kbar)   2913.56      0.00      0.00
                                0.00   2919.89     -0.00
                                0.00     -0.00  -2842.72

     exc-cor stress (kbar)    778.05      0.00      0.00
                                0.00    778.40     -0.00
                                0.00     -0.00    768.95

     corecor stress (kbar)  -1036.25     -0.00     -0.00
                               -0.00  -1037.15     -0.00
                               -0.00     -0.00  -1027.84

     ewald   stress (kbar)   2923.73      0.00     -0.00
                                0.00   2971.85     -0.00
                               -0.00     -0.00  -4757.74

     hubbard stress (kbar)      0.00      0.00      0.00
                                0.00      0.00      0.00
                                0.00      0.00      0.00

     london  stress (kbar)      0.00      0.00      0.00
                                0.00      0.00      0.00
                                0.00      0.00      0.00

     DFT-D3  stress (kbar)      0.00      0.00      0.00
                                0.00      0.00      0.00
                                0.00      0.00      0.00

     XDM     stress (kbar)      0.00      0.00      0.00
                                0.00      0.00      0.00
                                0.00      0.00      0.00

     dft-nl  stress (kbar)      0.00      0.00      0.00
                                0.00      0.00      0.00
                                0.00      0.00      0.00

     TS-vdW  stress (kbar)      0.00      0.00      0.00
                                0.00      0.00      0.00
                                0.00      0.00      0.00



     BFGS Geometry Optimization

     number of scf cycles    =   1
     number of bfgs steps    =   0

     enthalpy new            =     -22.7402530431 Ry

     new trust radius        =       0.0267639792 bohr
WARNING! With ibrav=0, cell_dofree='ibrav' does not have any effect. 
     new conv_thr            =       0.0000000004 Ry

     new unit-cell volume =   1038.83886 a.u.^3 (   153.94004 Ang^3 )
     density =      0.60591 g/cm^3

CELL_PARAMETERS (angstrom)
   1.929198609  -3.324790531   0.000000000
   1.929198609   3.324790531   0.000000000
   0.000000000   0.000000000  11.999975437

ATOMIC_POSITIONS (crystal)
Si      -0.001760068   0.001760068   0.000000000
Si       0.331760068   0.668239932   0.000000000



     Writing output data file silicene.save/
     NEW-OLD atomic charge density approx. for the potential

     negative rho (up, down):  1.424E-06 0.000E+00
     extrapolated charge    8.05050, renormalised to    8.00000

     total cpu time spent up to now is       73.1 secs

     Self-consistent Calculation

     iteration #  1     ecut=    50.00 Ry     beta= 0.40
     Davidson diagonalization with overlap
     ethr =  1.00E-06,  avg # of iterations =  6.1

     negative rho (up, down):  1.346E-06 0.000E+00

     total cpu time spent up to now is       82.5 secs

     total energy              =     -22.74111889 Ry
     Harris-Foulkes estimate   =     -22.51920989 Ry
     estimated scf accuracy    <       0.00035862 Ry

     iteration #  2     ecut=    50.00 Ry     beta= 0.40
     Davidson diagonalization with overlap
     ethr =  4.48E-06,  avg # of iterations =  4.4

     negative rho (up, down):  1.413E-06 0.000E+00

     total cpu time spent up to now is       88.9 secs

     total energy              =     -22.74157105 Ry
     Harris-Foulkes estimate   =     -22.74159644 Ry
     estimated scf accuracy    <       0.00007897 Ry

     iteration #  3     ecut=    50.00 Ry     beta= 0.40
     Davidson diagonalization with overlap
     ethr =  9.87E-07,  avg # of iterations =  1.0

     negative rho (up, down):  1.538E-06 0.000E+00

     total cpu time spent up to now is       93.4 secs

     total energy              =     -22.74155924 Ry
     Harris-Foulkes estimate   =     -22.74157428 Ry
     estimated scf accuracy    <       0.00002691 Ry

     iteration #  4     ecut=    50.00 Ry     beta= 0.40
     Davidson diagonalization with overlap
     ethr =  3.36E-07,  avg # of iterations =  2.0

     negative rho (up, down):  1.548E-06 0.000E+00

     total cpu time spent up to now is       98.8 secs

     total energy              =     -22.74156388 Ry
     Harris-Foulkes estimate   =     -22.74156390 Ry
     estimated scf accuracy    <       0.00000025 Ry

     iteration #  5     ecut=    50.00 Ry     beta= 0.40
     Davidson diagonalization with overlap
     ethr =  3.08E-09,  avg # of iterations =  2.6

     negative rho (up, down):  1.558E-06 0.000E+00

     total cpu time spent up to now is      106.0 secs

     total energy              =     -22.74156395 Ry
     Harris-Foulkes estimate   =     -22.74156396 Ry
     estimated scf accuracy    <       0.00000003 Ry

     iteration #  6     ecut=    50.00 Ry     beta= 0.40
     Davidson diagonalization with overlap
     ethr =  3.18E-10,  avg # of iterations =  2.0

     negative rho (up, down):  1.562E-06 0.000E+00

     total cpu time spent up to now is      110.7 secs

     total energy              =     -22.74156395 Ry
     Harris-Foulkes estimate   =     -22.74156396 Ry
     estimated scf accuracy    <          6.6E-10 Ry

     iteration #  7     ecut=    50.00 Ry     beta= 0.40
     Davidson diagonalization with overlap
     ethr =  8.26E-12,  avg # of iterations =  2.9

     negative rho (up, down):  1.565E-06 0.000E+00

     total cpu time spent up to now is      115.8 secs

     total energy              =     -22.74156395 Ry
     Harris-Foulkes estimate   =     -22.74156395 Ry
     estimated scf accuracy    <          8.3E-10 Ry

     iteration #  8     ecut=    50.00 Ry     beta= 0.40
     Davidson diagonalization with overlap
     ethr =  8.26E-12,  avg # of iterations =  2.0

     negative rho (up, down):  1.572E-06 0.000E+00

     total cpu time spent up to now is      120.6 secs

     End of self-consistent calculation

          k = 0.0000 0.0000 0.0000 (  6153 PWs)   bands (ev):

   -13.2014  -4.8547  -3.4595  -3.4317   0.0482   0.9197   0.9721   1.3500

     occupation numbers 
     1.0000   1.0000   1.0000   1.0000   0.0000   0.0000   0.0000   0.0000

          k = 0.0993 0.0576 0.0000 (  6134 PWs)   bands (ev):

   -13.0839  -4.7402  -4.2679  -3.6332   0.4107   1.1937   1.3894   1.4808

     occupation numbers 
     1.0000   1.0000   1.0000   1.0000   0.0000   0.0000   0.0000   0.0000

          k = 0.1985 0.1152 0.0000 (  6143 PWs)   bands (ev):

   -12.7354  -5.7603  -4.4003  -4.0444  -0.0090   1.8714   2.4671   2.4943

     occupation numbers 
     1.0000   1.0000   1.0000   1.0000   0.0000   0.0000   0.0000   0.0000

          k = 0.2978 0.1728 0.0000 (  6179 PWs)   bands (ev):

   -12.1717  -7.2705  -4.4386  -3.8507  -0.4990   0.9884   2.5159   4.0550

     occupation numbers 
     1.0000   1.0000   1.0000   1.0000   0.0000   0.0000   0.0000   0.0000

          k = 0.3970 0.2304 0.0000 (  6184 PWs)   bands (ev):

   -11.4532  -8.5873  -4.7029  -3.1524  -0.8308  -0.2989   3.3921   5.0597

     occupation numbers 
     1.0000   1.0000   1.0000   1.0000   0.0000   0.0000   0.0000   0.0000

          k =-0.4963-0.2880 0.0000 (  6178 PWs)   bands (ev):

   -10.9587  -9.2852  -4.7946  -2.6781  -0.9740  -0.9459   4.2271   4.7856

     occupation numbers 
     1.0000   1.0000   1.0000   1.0001   0.0000   0.0000   0.0000   0.0000

          k = 0.1985 0.0000 0.0000 (  6142 PWs)   bands (ev):

   -12.8517  -5.2839  -4.5137  -4.0615   0.9077   0.9621   1.7405   2.7907

     occupation numbers 
     1.0000   1.0000   1.0000   1.0000   0.0000   0.0000   0.0000   0.0000

          k = 0.2978 0.0576 0.0000 (  6142 PWs)   bands (ev):

   -12.3948  -6.6336  -4.6314  -4.0681   0.4365   1.5800   2.2338   2.2638

     occupation numbers 
     1.0000   1.0000   1.0000   1.0000   0.0000   0.0000   0.0000   0.0000

          k = 0.3970 0.1152 0.0000 (  6168 PWs)   bands (ev):

   -11.7414  -7.9891  -5.0531  -3.4316   0.0383   0.2639   3.0185   3.8942

     occupation numbers 
     1.0000   1.0000   1.0000   1.0000   0.0000   0.0000   0.0000   0.0000

          k = 0.4963 0.1728 0.0000 (  6168 PWs)   bands (ev):

   -11.0287  -9.0773  -5.2681  -2.7427  -0.7886  -0.1784   3.9630   4.0979

     occupation numbers 
     1.0000   1.0000   1.0000   1.0000   0.0000   0.0000   0.0000   0.0000

          k =-0.3970-0.3456 0.0000 (  6178 PWs)   bands (ev):

   -11.0238  -9.0833  -5.2645  -2.7384  -0.7935  -0.1835   3.9721   4.1039

     occupation numbers 
     1.0000   1.0000   1.0000   1.0000   0.0000   0.0000   0.0000   0.0000

          k =-0.2978-0.2880 0.0000 (  6176 PWs)   bands (ev):

   -11.7352  -7.9980  -5.0437  -3.4260   0.0238   0.2575   3.0256   3.7889

     occupation numbers 
     1.0000   1.0000   1.0000   1.0000   0.0000   0.0000   0.0000   0.0000

          k =-0.1985-0.2304 0.0000 (  6151 PWs)   bands (ev):

   -12.3899  -6.6388  -4.6221  -4.0636   0.4164   1.5780   2.1472   2.2634

     occupation numbers 
     1.0000   1.0000   1.0000   1.0000   0.0000   0.0000   0.0000   0.0000

          k =-0.0993-0.1728 0.0000 (  6131 PWs)   bands (ev):

   -12.8487  -5.2749  -4.5110  -4.0673   0.8669   0.9132   1.7435   2.8540

     occupation numbers 
     1.0000   1.0000   1.0000   1.0000   0.0000   0.0000   0.0000   0.0000

          k = 0.0000-0.1152 0.0000 (  6166 PWs)   bands (ev):

   -13.0829  -4.7393  -4.2435  -3.6586   0.3625   1.2662   1.3552   1.4817

     occupation numbers 
     1.0000   1.0000   1.0000   1.0000   0.0000   0.0000   0.0000   0.0000

          k = 0.3970 0.0000 0.0000 (  6178 PWs)   bands (ev):

   -11.8414  -7.6428  -5.4326  -3.5288   0.5628   1.5924   2.0254   2.8935

     occupation numbers 
     1.0000   1.0000   1.0000   1.0000   0.0000   0.0000   0.0000   0.0000

          k = 0.4963 0.0576 0.0000 (  6177 PWs)   bands (ev):

   -11.1237  -8.7003  -5.9542  -2.8317  -0.4658   1.4872   3.2093   3.5563

     occupation numbers 
     1.0000   1.0000   1.0000   1.0000   0.0000   0.0000   0.0000   0.0000

          k = 0.5956 0.1152 0.0000 (  6153 PWs)   bands (ev):

   -10.5825  -9.3717  -6.1221  -2.3129  -1.1064   1.3899   3.0040   4.4298

     occupation numbers 
     1.0000   1.0000   1.0000   1.0568   0.0000   0.0000   0.0000   0.0000

          k =-0.2978-0.4032 0.0000 (  6179 PWs)   bands (ev):

   -11.1103  -8.7150  -5.9498  -2.8199  -0.4766   1.4744   3.2142   3.4539

     occupation numbers 
     1.0000   1.0000   1.0000   1.0000   0.0000   0.0000   0.0000   0.0000

          k =-0.1985-0.3456 0.0000 (  6170 PWs)   bands (ev):

   -11.8298  -7.6502  -5.4320  -3.5183   0.5593   1.5494   1.9480   2.9055

     occupation numbers 
     1.0000   1.0000   1.0000   1.0000   0.0000   0.0000   0.0000   0.0000

          k =-0.0993-0.2880 0.0000 (  6164 PWs)   bands (ev):

   -12.3867  -6.6234  -4.6475  -4.0607   0.3674   1.5903   2.1993   2.2667

     occupation numbers 
     1.0000   1.0000   1.0000   1.0000   0.0000   0.0000   0.0000   0.0000

          k = 0.0000-0.2304 0.0000 (  6144 PWs)   bands (ev):

   -12.7313  -5.7362  -4.3965  -4.0777  -0.0567   1.8755   2.4824   2.4862

     occupation numbers 
     1.0000   1.0000   1.0000   1.0000   0.0000   0.0000   0.0000   0.0000

          k = 0.5956 0.0000 0.0000 (  6174 PWs)   bands (ev):

   -10.3842  -9.4450  -6.5172  -2.1163  -1.2083   2.5687   3.0823   3.5742

     occupation numbers 
     1.0000   1.0000   1.0000   0.9699   0.0000   0.0000   0.0000   0.0000

          k = 0.6948 0.0576 0.0000 (  6168 PWs)   bands (ev):

   -10.3617  -9.4652  -6.5198  -2.0975  -1.2237   2.5657   3.0364   3.5133

     occupation numbers 
     1.0000   1.0000   1.0000   0.9244   0.0000   0.0000   0.0000   0.0000

          k =-0.1985-0.4608 0.0000 (  6172 PWs)   bands (ev):

   -11.1025  -8.7109  -5.9661  -2.8133  -0.4721   1.3999   3.1983   3.5334

     occupation numbers 
     1.0000   1.0000   1.0000   1.0000   0.0000   0.0000   0.0000   0.0000

          k =-0.0993-0.4032 0.0000 (  6186 PWs)   bands (ev):

   -11.7256  -7.9835  -5.0795  -3.4175  -0.0361   0.2715   3.0340   3.8593

     occupation numbers 
     1.0000   1.0000   1.0000   1.0000   0.0000   0.0000   0.0000   0.0000

          k =-0.0000-0.3456 0.0000 (  6182 PWs)   bands (ev):

   -12.1620  -7.2520  -4.4783  -3.8420  -0.5552   1.0062   2.5251   4.0591

     occupation numbers 
     1.0000   1.0000   1.0000   1.0000   0.0000   0.0000   0.0000   0.0000

          k = 0.7941 0.0000 0.0000 (  6138 PWs)   bands (ev):

   -10.5539  -9.3864  -6.1410  -2.2896  -1.1153   1.3059   2.9851   4.4612

     occupation numbers 
     1.0000   1.0000   1.0000   1.0675   0.0000   0.0000   0.0000   0.0000

          k =-0.0993-0.5184 0.0000 (  6188 PWs)   bands (ev):

   -11.0008  -9.0820  -5.3019  -2.7192  -0.7884  -0.2521   3.9887   4.0659

     occupation numbers 
     1.0000   1.0000   1.0000   1.0000   0.0000   0.0000   0.0000   0.0000

          k = 0.0000-0.4608 0.0000 (  6192 PWs)   bands (ev):

   -11.4340  -8.5791  -4.7465  -3.1357  -0.8930  -0.2881   3.4086   5.0628

     occupation numbers 
     1.0000   1.0000   1.0000   1.0000   0.0000   0.0000   0.0000   0.0000

          k =-0.9926 0.0000 0.0000 (  6154 PWs)   bands (ev):

   -10.9274  -9.2895  -4.8395  -2.6522  -1.0102  -0.9723   4.2546   4.8055

     occupation numbers 
     1.0000   1.0000   1.0000   1.0001   0.0000   0.0000   0.0000   0.0000

     the Fermi energy is    -1.9467 ev

!    total energy              =     -22.74156395 Ry
     Harris-Foulkes estimate   =     -22.74156395 Ry
     estimated scf accuracy    <          5.9E-11 Ry

     The total energy is the sum of the following terms:

     one-electron contribution =     -39.24020509 Ry
     hartree contribution      =      20.85038571 Ry
     xc contribution           =     -12.20408891 Ry
     ewald contribution        =       7.85205500 Ry
     smearing contrib. (-TS)   =       0.00028934 Ry

     convergence has been achieved in   8 iterations

     negative rho (up, down):  1.572E-06 0.000E+00

     Forces acting on atoms (cartesian axes, Ry/au):

     atom    1 type  1   force =     0.00000000    0.00186324    0.00000000
     atom    2 type  1   force =    -0.00000000   -0.00186324    0.00000000
     The non-local contrib.  to forces
     atom    1 type  1   force =     0.00000000    0.00502281    0.00000000
     atom    2 type  1   force =     0.00000000   -0.00506910    0.00000000
     The ionic contribution  to forces
     atom    1 type  1   force =    -0.00000000    0.01527370   -0.00000000
     atom    2 type  1   force =     0.00000000   -0.01527370   -0.00000000
     The local contribution  to forces
     atom    1 type  1   force =     0.00000000   -0.01786146    0.00000000
     atom    2 type  1   force =     0.00000000    0.01787483    0.00000000
     The core correction contribution to forces
     atom    1 type  1   force =     0.00000000   -0.00059997    0.00000000
     atom    2 type  1   force =    -0.00000000    0.00057745    0.00000000
     The Hubbard contrib.    to forces
     atom    1 type  1   force =     0.00000000    0.00000000    0.00000000
     atom    2 type  1   force =     0.00000000    0.00000000    0.00000000
     The SCF correction term to forces
     atom    1 type  1   force =     0.00000000    0.00000044   -0.00000000
     atom    2 type  1   force =    -0.00000000   -0.00000044   -0.00000000

     Total force =     0.002635     Total SCF correction =     0.000001


     Computing stress (Cartesian axis) and pressure


     negative rho (up, down):  1.572E-06 0.000E+00
          total   stress  (Ry/bohr**3)                   (kbar)     P=    9.79
   0.00009040  -0.00000000  -0.00000000         13.30     -0.00     -0.00
   0.00000000   0.00010923  -0.00000000          0.00     16.07     -0.00
   0.00000000   0.00000000  -0.00000006          0.00      0.00     -0.01

     kinetic stress (kbar)    519.82      0.00      0.00
                                0.00    521.87      0.00
                                0.00      0.00    650.65

     local   stress (kbar)  -6478.75     -0.00     -0.00
                               -0.00  -6481.22      0.00
                               -0.00      0.00   6732.17

     nonloc. stress (kbar)    446.57      0.00      0.00
                                0.00    446.87      0.00
                                0.00      0.00    376.34

     hartree stress (kbar)   2878.12      0.00      0.00
                                0.00   2878.92     -0.00
                                0.00     -0.00  -2804.51

     exc-cor stress (kbar)    773.62      0.00     -0.00
                                0.00    773.62     -0.00
                               -0.00     -0.00    764.46

     corecor stress (kbar)  -1029.87      0.00      0.00
                                0.00  -1029.94     -0.00
                               -0.00     -0.00  -1021.28

     ewald   stress (kbar)   2903.78      0.00     -0.00
                                0.00   2905.95     -0.00
                               -0.00     -0.00  -4697.84

     hubbard stress (kbar)      0.00      0.00      0.00
                                0.00      0.00      0.00
                                0.00      0.00      0.00

     london  stress (kbar)      0.00      0.00      0.00
                                0.00      0.00      0.00
                                0.00      0.00      0.00

     DFT-D3  stress (kbar)      0.00      0.00      0.00
                                0.00      0.00      0.00
                                0.00      0.00      0.00

     XDM     stress (kbar)      0.00      0.00      0.00
                                0.00      0.00      0.00
                                0.00      0.00      0.00

     dft-nl  stress (kbar)      0.00      0.00      0.00
                                0.00      0.00      0.00
                                0.00      0.00      0.00

     TS-vdW  stress (kbar)      0.00      0.00      0.00
                                0.00      0.00      0.00
                                0.00      0.00      0.00



     number of scf cycles    =   2
     number of bfgs steps    =   1

     enthalpy old            =     -22.7402530431 Ry
     enthalpy new            =     -22.7415639536 Ry

     CASE: enthalpy_new < enthalpy_old

     new trust radius        =       0.0383035763 bohr
WARNING! With ibrav=0, cell_dofree='ibrav' does not have any effect. 
     new conv_thr            =            7.5E-11 Ry

     new unit-cell volume =   1049.72569 a.u.^3 (   155.55330 Ang^3 )
     density =      0.59963 g/cm^3

CELL_PARAMETERS (angstrom)
   1.937907141  -3.344546554   0.000000000
   1.937907141   3.344546554   0.000000000
  -0.000000000  -0.000000000  11.999938401

ATOMIC_POSITIONS (crystal)
Si      -0.002596841   0.002596841   0.000000000
Si       0.332596841   0.667403159   0.000000000



     Writing output data file silicene.save/
     NEW-OLD atomic charge density approx. for the potential

     negative rho (up, down):  1.089E-06 0.000E+00
     extrapolated charge    8.08296, renormalised to    8.00000

     total cpu time spent up to now is      132.8 secs

     Self-consistent Calculation

     iteration #  1     ecut=    50.00 Ry     beta= 0.40
     Davidson diagonalization with overlap
     ethr =  1.00E-06,  avg # of iterations =  6.4

     negative rho (up, down):  9.536E-07 0.000E+00

     total cpu time spent up to now is      140.9 secs

     total energy              =     -22.74118152 Ry
     Harris-Foulkes estimate   =     -22.38091453 Ry
     estimated scf accuracy    <       0.00078026 Ry

     iteration #  2     ecut=    50.00 Ry     beta= 0.40
     Davidson diagonalization with overlap
     ethr =  9.75E-06,  avg # of iterations =  4.7

     negative rho (up, down):  1.015E-06 0.000E+00

     total cpu time spent up to now is      147.2 secs

     total energy              =     -22.74240231 Ry
     Harris-Foulkes estimate   =     -22.74246349 Ry
     estimated scf accuracy    <       0.00019118 Ry

     iteration #  3     ecut=    50.00 Ry     beta= 0.40
     Davidson diagonalization with overlap
     ethr =  2.39E-06,  avg # of iterations =  1.1

     negative rho (up, down):  1.145E-06 0.000E+00

     total cpu time spent up to now is      151.5 secs

     total energy              =     -22.74236695 Ry
     Harris-Foulkes estimate   =     -22.74240944 Ry
     estimated scf accuracy    <       0.00007025 Ry

     iteration #  4     ecut=    50.00 Ry     beta= 0.40
     Davidson diagonalization with overlap
     ethr =  8.78E-07,  avg # of iterations =  2.3

     negative rho (up, down):  1.156E-06 0.000E+00

     total cpu time spent up to now is      156.7 secs

     total energy              =     -22.74237928 Ry
     Harris-Foulkes estimate   =     -22.74237931 Ry
     estimated scf accuracy    <       0.00000022 Ry

     iteration #  5     ecut=    50.00 Ry     beta= 0.40
     Davidson diagonalization with overlap
     ethr =  2.81E-09,  avg # of iterations =  2.7

     negative rho (up, down):  1.169E-06 0.000E+00

     total cpu time spent up to now is      161.9 secs

     total energy              =     -22.74237935 Ry
     Harris-Foulkes estimate   =     -22.74237945 Ry
     estimated scf accuracy    <       0.00000020 Ry

     iteration #  6     ecut=    50.00 Ry     beta= 0.40
     Davidson diagonalization with overlap
     ethr =  2.46E-09,  avg # of iterations =  2.0

     negative rho (up, down):  1.175E-06 0.000E+00

     total cpu time spent up to now is      166.3 secs

     total energy              =     -22.74237938 Ry
     Harris-Foulkes estimate   =     -22.74237937 Ry
     estimated scf accuracy    <          7.3E-10 Ry

     iteration #  7     ecut=    50.00 Ry     beta= 0.40
     Davidson diagonalization with overlap
     ethr =  9.08E-12,  avg # of iterations =  3.2

     negative rho (up, down):  1.176E-06 0.000E+00

     total cpu time spent up to now is      173.5 secs

     total energy              =     -22.74237937 Ry
     Harris-Foulkes estimate   =     -22.74237938 Ry
     estimated scf accuracy    <          5.6E-09 Ry

     iteration #  8     ecut=    50.00 Ry     beta= 0.40
     Davidson diagonalization with overlap
     ethr =  9.08E-12,  avg # of iterations =  2.2

     negative rho (up, down):  1.179E-06 0.000E+00

     total cpu time spent up to now is      180.6 secs

     total energy              =     -22.74237938 Ry
     Harris-Foulkes estimate   =     -22.74237938 Ry
     estimated scf accuracy    <          5.8E-10 Ry

     iteration #  9     ecut=    50.00 Ry     beta= 0.40
     Davidson diagonalization with overlap
     ethr =  7.22E-12,  avg # of iterations =  2.0

     negative rho (up, down):  1.182E-06 0.000E+00

     total cpu time spent up to now is      187.9 secs

     End of self-consistent calculation

          k = 0.0000 0.0000 0.0000 (  6153 PWs)   bands (ev):

   -13.1678  -4.8411  -3.5437  -3.4327  -0.1369   0.8662   0.9215   1.3374

     occupation numbers 
     1.0000   1.0000   1.0000   1.0000   0.0000   0.0000   0.0000   0.0000

          k = 0.0988 0.0573 0.0000 (  6134 PWs)   bands (ev):

   -13.0515  -4.7277  -4.3337  -3.6519   0.2883   1.1025   1.3143   1.4669

     occupation numbers 
     1.0000   1.0000   1.0000   1.0000   0.0000   0.0000   0.0000   0.0000

          k = 0.1976 0.1145 0.0000 (  6143 PWs)   bands (ev):

   -12.7064  -5.8138  -4.3912  -4.0632  -0.0741   1.8538   2.3802   2.3997

     occupation numbers 
     1.0000   1.0000   1.0000   1.0000   0.0000   0.0000   0.0000   0.0000

          k = 0.2964 0.1718 0.0000 (  6179 PWs)   bands (ev):

   -12.1479  -7.3098  -4.4558  -3.8469  -0.5547   0.9229   2.4921   3.9518

     occupation numbers 
     1.0000   1.0000   1.0000   1.0000   0.0000   0.0000   0.0000   0.0000

          k = 0.3953 0.2290 0.0000 (  6184 PWs)   bands (ev):

   -11.4346  -8.6151  -4.7186  -3.1542  -0.8828  -0.3493   3.3599   5.0110

     occupation numbers 
     1.0000   1.0000   1.0000   1.0000   0.0000   0.0000   0.0000   0.0000

          k =-0.4941-0.2863-0.0000 (  6178 PWs)   bands (ev):

   -10.9404  -9.3105  -4.8099  -2.6811  -1.0200  -0.9969   4.1894   4.7286

     occupation numbers 
     1.0000   1.0000   1.0000   1.0001   0.0000   0.0000   0.0000   0.0000

          k = 0.1976 0.0000 0.0000 (  6142 PWs)   bands (ev):

   -12.8209  -5.3626  -4.5028  -4.0537   0.7972   0.9015   1.7244   2.6541

     occupation numbers 
     1.0000   1.0000   1.0000   1.0000   0.0000   0.0000   0.0000   0.0000

          k = 0.2964 0.0573 0.0000 (  6142 PWs)   bands (ev):

   -12.3674  -6.6969  -4.6238  -4.0609   0.3688   1.4946   2.1352   2.2369

     occupation numbers 
     1.0000   1.0000   1.0000   1.0000   0.0000   0.0000   0.0000   0.0000

          k = 0.3953 0.1145 0.0000 (  6168 PWs)   bands (ev):

   -11.7188  -8.0340  -5.0505  -3.4295  -0.0254   0.1983   2.9909   3.7806

     occupation numbers 
     1.0000   1.0000   1.0000   1.0000   0.0000   0.0000   0.0000   0.0000

          k = 0.4941 0.1718 0.0000 (  6168 PWs)   bands (ev):

   -11.0095  -9.1097  -5.2708  -2.7449  -0.8405  -0.2389   3.9263   4.0626

     occupation numbers 
     1.0000   1.0000   1.0000   1.0000   0.0000   0.0000   0.0000   0.0000

          k =-0.3953-0.3435-0.0000 (  6178 PWs)   bands (ev):

   -11.0099  -9.1061  -5.2734  -2.7450  -0.8376  -0.2422   3.9331   4.0595

     occupation numbers 
     1.0000   1.0000   1.0000   1.0000   0.0000   0.0000   0.0000   0.0000

          k =-0.2964-0.2863-0.0000 (  6176 PWs)   bands (ev):

   -11.7186  -8.0226  -5.0607  -3.4291  -0.0345   0.2074   2.9957   3.6718

     occupation numbers 
     1.0000   1.0000   1.0000   1.0000   0.0000   0.0000   0.0000   0.0000

          k =-0.1976-0.2290-0.0000 (  6151 PWs)   bands (ev):

   -12.3669  -6.6700  -4.6511  -4.0601   0.3561   1.5135   2.0381   2.2405

     occupation numbers 
     1.0000   1.0000   1.0000   1.0000   0.0000   0.0000   0.0000   0.0000

          k =-0.0988-0.1718-0.0000 (  6131 PWs)   bands (ev):

   -12.8204  -5.3049  -4.5023  -4.1166   0.7550   0.8494   1.7265   2.7499

     occupation numbers 
     1.0000   1.0000   1.0000   1.0000   0.0000   0.0000   0.0000   0.0000

          k = 0.0000-0.1145-0.0000 (  6166 PWs)   bands (ev):

   -13.0514  -4.7275  -4.2588  -3.7335   0.2333   1.1305   1.3450   1.4676

     occupation numbers 
     1.0000   1.0000   1.0000   1.0000   0.0000   0.0000   0.0000   0.0000

          k = 0.3953 0.0000 0.0000 (  6178 PWs)   bands (ev):

   -11.8174  -7.7046  -5.4110  -3.5253   0.4852   1.5744   1.8624   2.8666

     occupation numbers 
     1.0000   1.0000   1.0000   1.0000   0.0000   0.0000   0.0000   0.0000

          k = 0.4941 0.0573 0.0000 (  6177 PWs)   bands (ev):

   -11.1032  -8.7499  -5.9342  -2.8326  -0.5306   1.4164   3.1951   3.4448

     occupation numbers 
     1.0000   1.0000   1.0000   1.0000   0.0000   0.0000   0.0000   0.0000

          k = 0.5929 0.1145 0.0000 (  6153 PWs)   bands (ev):

   -10.5681  -9.4046  -6.1113  -2.3203  -1.1563   1.3165   2.9820   4.3787

     occupation numbers 
     1.0000   1.0000   1.0000   1.0644   0.0000   0.0000   0.0000   0.0000

          k =-0.2964-0.4008-0.0000 (  6179 PWs)   bands (ev):

   -11.1053  -8.7297  -5.9523  -2.8338  -0.5149   1.4017   3.1802   3.3451

     occupation numbers 
     1.0000   1.0000   1.0000   1.0000   0.0000   0.0000   0.0000   0.0000

          k =-0.1976-0.3435-0.0000 (  6170 PWs)   bands (ev):

   -11.8176  -7.6635  -5.4531  -3.5249   0.5152   1.4701   1.8540   2.8753

     occupation numbers 
     1.0000   1.0000   1.0000   1.0000   0.0000   0.0000   0.0000   0.0000

          k =-0.0988-0.2863-0.0000 (  6164 PWs)   bands (ev):

   -12.3670  -6.6359  -4.6908  -4.0600   0.2784   1.5361   2.1229   2.2433

     occupation numbers 
     1.0000   1.0000   1.0000   1.0000   0.0000   0.0000   0.0000   0.0000

          k = 0.0000-0.2290-0.0000 (  6144 PWs)   bands (ev):

   -12.7060  -5.7506  -4.3906  -4.1366  -0.1483   1.8565   2.4182   2.4481

     occupation numbers 
     1.0000   1.0000   1.0000   1.0000   0.0000   0.0000   0.0000   0.0000

          k = 0.5929 0.0000 0.0000 (  6174 PWs)   bands (ev):

   -10.3637  -9.4922  -6.4944  -2.1193  -1.2680   2.5573   3.0531   3.4104

     occupation numbers 
     1.0000   1.0000   1.0000   0.9195   0.0000   0.0000   0.0000   0.0000

          k = 0.6917 0.0573 0.0000 (  6168 PWs)   bands (ev):

   -10.3780  -9.4618  -6.5114  -2.1304  -1.2443   2.5439   2.9505   3.4112

     occupation numbers 
     1.0000   1.0000   1.0000   0.9479   0.0000   0.0000   0.0000   0.0000

          k =-0.1976-0.4581-0.0000 (  6172 PWs)   bands (ev):

   -11.1098  -8.7008  -5.9801  -2.8373  -0.4924   1.3097   3.1590   3.4413

     occupation numbers 
     1.0000   1.0000   1.0000   1.0000   0.0000   0.0000   0.0000   0.0000

          k =-0.0988-0.4008-0.0000 (  6186 PWs)   bands (ev):

   -11.7210  -7.9757  -5.1143  -3.4306  -0.1160   0.2441   3.0005   3.7695

     occupation numbers 
     1.0000   1.0000   1.0000   1.0000   0.0000   0.0000   0.0000   0.0000

          k =-0.0000-0.3435-0.0000 (  6182 PWs)   bands (ev):

   -12.1484  -7.2517  -4.5252  -3.8467  -0.6327   0.9671   2.4981   4.3727

     occupation numbers 
     1.0000   1.0000   1.0000   1.0000   0.0000   0.0000   0.0000   0.0000

          k = 0.7905 0.0000 0.0000 (  6138 PWs)   bands (ev):

   -10.5918  -9.3440  -6.1527  -2.3388  -1.1081   1.2171   2.9488   4.3829

     occupation numbers 
     1.0000   1.0000   1.0000   1.0558   0.0000   0.0000   0.0000   0.0000

          k =-0.0988-0.5153-0.0000 (  6188 PWs)   bands (ev):

   -11.0247  -9.0428  -5.3321  -2.7565  -0.7853  -0.3276   3.9392   4.0127

     occupation numbers 
     1.0000   1.0000   1.0000   1.0000   0.0000   0.0000   0.0000   0.0000

          k = 0.0000-0.4581-0.0000 (  6192 PWs)   bands (ev):

   -11.4413  -8.5541  -4.7864  -3.1590  -0.9631  -0.2987   3.3696   5.0089

     occupation numbers 
     1.0000   1.0000   1.0000   1.0000   0.0000   0.0000   0.0000   0.0000

          k =-0.9882 0.0000-0.0000 (  6154 PWs)   bands (ev):

   -10.9621  -9.2356  -4.8772  -2.6979  -1.0779  -0.9572   4.1946   4.7653

     occupation numbers 
     1.0000   1.0000   1.0000   1.0001   0.0000   0.0000   0.0000   0.0000

     the Fermi energy is    -1.9704 ev

!    total energy              =     -22.74237937 Ry
     Harris-Foulkes estimate   =     -22.74237938 Ry
     estimated scf accuracy    <          7.3E-12 Ry

     The total energy is the sum of the following terms:

     one-electron contribution =     -38.82483236 Ry
     hartree contribution      =      20.62997290 Ry
     xc contribution           =     -12.18728020 Ry
     ewald contribution        =       7.63946934 Ry
     smearing contrib. (-TS)   =       0.00029094 Ry

     convergence has been achieved in   9 iterations

     negative rho (up, down):  1.182E-06 0.000E+00

     Forces acting on atoms (cartesian axes, Ry/au):

     atom    1 type  1   force =    -0.00000000   -0.00715587   -0.00000000
     atom    2 type  1   force =     0.00000000    0.00715587    0.00000000
     The non-local contrib.  to forces
     atom    1 type  1   force =     0.00000000   -0.00361075   -0.00000000
     atom    2 type  1   force =     0.00000000    0.00357040    0.00000000
     The ionic contribution  to forces
     atom    1 type  1   force =    -0.00000000   -0.00962209   -0.00000000
     atom    2 type  1   force =     0.00000000    0.00962209   -0.00000000
     The local contribution  to forces
     atom    1 type  1   force =     0.00000000    0.00564219    0.00000000
     atom    2 type  1   force =     0.00000000   -0.00562621    0.00000000
     The core correction contribution to forces
     atom    1 type  1   force =     0.00000000    0.00040045   -0.00000000
     atom    2 type  1   force =    -0.00000000   -0.00044414    0.00000000
     The Hubbard contrib.    to forces
     atom    1 type  1   force =     0.00000000    0.00000000    0.00000000
     atom    2 type  1   force =     0.00000000    0.00000000    0.00000000
     The SCF correction term to forces
     atom    1 type  1   force =     0.00000000    0.00000030   -0.00000000
     atom    2 type  1   force =    -0.00000000   -0.00000030   -0.00000000

     Total force =     0.010120     Total SCF correction =     0.000000


     Computing stress (Cartesian axis) and pressure


     negative rho (up, down):  1.182E-06 0.000E+00
          total   stress  (Ry/bohr**3)                   (kbar)     P=    5.92
   0.00006468   0.00000000  -0.00000000          9.51      0.00     -0.00
   0.00000000   0.00005605  -0.00000000          0.00      8.25     -0.00
   0.00000000   0.00000000  -0.00000008          0.00      0.00     -0.01

     kinetic stress (kbar)    509.84     -0.00     -0.00
                                0.00    513.75      0.00
                               -0.00      0.00    641.86

     local   stress (kbar)  -6352.00     -0.00      0.00
                               -0.00  -6332.93      0.00
                                0.00      0.00   6583.08

     nonloc. stress (kbar)    441.12      0.00      0.00
                                0.00    438.37      0.00
                                0.00      0.00    372.10

     hartree stress (kbar)   2817.84      0.00     -0.00
                                0.00   2815.86     -0.00
                               -0.00     -0.00  -2742.69

     exc-cor stress (kbar)    766.16     -0.00      0.00
                               -0.00    765.99      0.00
                                0.00      0.00    757.12

     corecor stress (kbar)  -1019.00      0.00     -0.00
                                0.00  -1018.69     -0.00
                               -0.00     -0.00  -1010.61

     ewald   stress (kbar)   2845.56     -0.00     -0.00
                               -0.00   2825.88     -0.00
                               -0.00     -0.00  -4600.87

     hubbard stress (kbar)      0.00      0.00      0.00
                                0.00      0.00      0.00
                                0.00      0.00      0.00

     london  stress (kbar)      0.00      0.00      0.00
                                0.00      0.00      0.00
                                0.00      0.00      0.00

     DFT-D3  stress (kbar)      0.00      0.00      0.00
                                0.00      0.00      0.00
                                0.00      0.00      0.00

     XDM     stress (kbar)      0.00      0.00      0.00
                                0.00      0.00      0.00
                                0.00      0.00      0.00

     dft-nl  stress (kbar)      0.00      0.00      0.00
                                0.00      0.00      0.00
                                0.00      0.00      0.00

     TS-vdW  stress (kbar)      0.00      0.00      0.00
                                0.00      0.00      0.00
                                0.00      0.00      0.00



     number of scf cycles    =   3
     number of bfgs steps    =   2

     enthalpy old            =     -22.7415639536 Ry
     enthalpy new            =     -22.7423793729 Ry

     CASE: enthalpy_new < enthalpy_old

     new trust radius        =       0.0416305697 bohr
WARNING! With ibrav=0, cell_dofree='ibrav' does not have any effect. 
     new conv_thr            =       0.0000000002 Ry

     new unit-cell volume =   1062.26694 a.u.^3 (   157.41172 Ang^3 )
     density =      0.59255 g/cm^3

CELL_PARAMETERS (angstrom)
   1.948552240  -3.366033847   0.000000000
   1.948552240   3.366033847   0.000000000
  -0.000000000  -0.000000000  11.999869739

ATOMIC_POSITIONS (crystal)
Si      -0.002599997   0.002599997  -0.000000000
Si       0.332599997   0.667400003   0.000000000



     Writing output data file silicene.save/
     NEW-OLD atomic charge density approx. for the potential

     negative rho (up, down):  1.289E-06 0.000E+00
     extrapolated charge    8.09444, renormalised to    8.00000

     total cpu time spent up to now is      199.9 secs

     Self-consistent Calculation

     iteration #  1     ecut=    50.00 Ry     beta= 0.40
     Davidson diagonalization with overlap
     ethr =  1.00E-06,  avg # of iterations =  6.9

     negative rho (up, down):  1.041E-06 0.000E+00

     total cpu time spent up to now is      207.8 secs

     total energy              =     -22.74131969 Ry
     Harris-Foulkes estimate   =     -22.33676622 Ry
     estimated scf accuracy    <       0.00098464 Ry

     iteration #  2     ecut=    50.00 Ry     beta= 0.40
     Davidson diagonalization with overlap
     ethr =  1.23E-05,  avg # of iterations =  4.6

     negative rho (up, down):  1.073E-06 0.000E+00

     total cpu time spent up to now is      214.1 secs

     total energy              =     -22.74289165 Ry
     Harris-Foulkes estimate   =     -22.74296865 Ry
     estimated scf accuracy    <       0.00024073 Ry

     iteration #  3     ecut=    50.00 Ry     beta= 0.40
     Davidson diagonalization with overlap
     ethr =  3.01E-06,  avg # of iterations =  1.1

     negative rho (up, down):  1.192E-06 0.000E+00

     total cpu time spent up to now is      218.1 secs

     total energy              =     -22.74284795 Ry
     Harris-Foulkes estimate   =     -22.74290061 Ry
     estimated scf accuracy    <       0.00008911 Ry

     iteration #  4     ecut=    50.00 Ry     beta= 0.40
     Davidson diagonalization with overlap
     ethr =  1.11E-06,  avg # of iterations =  2.3

     negative rho (up, down):  1.190E-06 0.000E+00

     total cpu time spent up to now is      222.9 secs

     total energy              =     -22.74286228 Ry
     Harris-Foulkes estimate   =     -22.74286204 Ry
     estimated scf accuracy    <       0.00000031 Ry

     iteration #  5     ecut=    50.00 Ry     beta= 0.40
     Davidson diagonalization with overlap
     ethr =  3.85E-09,  avg # of iterations =  2.5

     negative rho (up, down):  1.201E-06 0.000E+00

     total cpu time spent up to now is      228.3 secs

     total energy              =     -22.74286205 Ry
     Harris-Foulkes estimate   =     -22.74286247 Ry
     estimated scf accuracy    <       0.00000080 Ry

     iteration #  6     ecut=    50.00 Ry     beta= 0.40
     Davidson diagonalization with overlap
     ethr =  3.85E-09,  avg # of iterations =  2.0

     negative rho (up, down):  1.204E-06 0.000E+00

     total cpu time spent up to now is      233.6 secs

     total energy              =     -22.74286212 Ry
     Harris-Foulkes estimate   =     -22.74286213 Ry
     estimated scf accuracy    <       0.00000003 Ry

     iteration #  7     ecut=    50.00 Ry     beta= 0.40
     Davidson diagonalization with overlap
     ethr =  3.19E-10,  avg # of iterations =  2.0

     negative rho (up, down):  1.203E-06 0.000E+00

     total cpu time spent up to now is      238.0 secs

     total energy              =     -22.74286212 Ry
     Harris-Foulkes estimate   =     -22.74286212 Ry
     estimated scf accuracy    <          3.5E-10 Ry

     iteration #  8     ecut=    50.00 Ry     beta= 0.40
     Davidson diagonalization with overlap
     ethr =  4.32E-12,  avg # of iterations =  2.8

     negative rho (up, down):  1.204E-06 0.000E+00

     total cpu time spent up to now is      242.9 secs

     total energy              =     -22.74286212 Ry
     Harris-Foulkes estimate   =     -22.74286212 Ry
     estimated scf accuracy    <          7.6E-10 Ry

     iteration #  9     ecut=    50.00 Ry     beta= 0.40
     Davidson diagonalization with overlap
     ethr =  4.32E-12,  avg # of iterations =  2.0

     negative rho (up, down):  1.204E-06 0.000E+00

     total cpu time spent up to now is      247.7 secs

     End of self-consistent calculation

          k = 0.0000 0.0000 0.0000 (  6153 PWs)   bands (ev):

   -13.1299  -4.8257  -3.5896  -3.4820  -0.3464   0.8018   0.8698   1.3231

     occupation numbers 
     1.0000   1.0000   1.0000   1.0000   0.0000   0.0000   0.0000   0.0000

          k = 0.0983 0.0569 0.0000 (  6134 PWs)   bands (ev):

   -13.0151  -4.7139  -4.3860  -3.6969   0.1321   1.0068   1.2458   1.4512

     occupation numbers 
     1.0000   1.0000   1.0000   1.0000   0.0000   0.0000   0.0000   0.0000

          k = 0.1966 0.1138 0.0000 (  6143 PWs)   bands (ev):

   -12.6747  -5.8581  -4.3819  -4.1013  -0.1623   1.8337   2.2899   2.3167

     occupation numbers 
     1.0000   1.0000   1.0000   1.0000   0.0000   0.0000   0.0000   0.0000

          k = 0.2948 0.1707 0.0000 (  6179 PWs)   bands (ev):

   -12.1240  -7.3385  -4.4882  -3.8452  -0.6293   0.8594   2.4646   4.1721

     occupation numbers 
     1.0000   1.0000   1.0000   1.0000   0.0000   0.0000   0.0000   0.0000

          k = 0.3931 0.2276 0.0000 (  6184 PWs)   bands (ev):

   -11.4215  -8.6269  -4.7476  -3.1630  -0.9517  -0.3913   3.3222   4.9542

     occupation numbers 
     1.0000   1.0000   1.0000   1.0000   0.0000   0.0000   0.0000   0.0000

          k =-0.4914-0.2845-0.0000 (  6178 PWs)   bands (ev):

   -10.9370  -9.3105  -4.8376  -2.6986  -1.0642  -1.0497   4.1403   4.6716

     occupation numbers 
     1.0000   1.0000   1.0000   1.0001   0.0000   0.0000   0.0000   0.0000

          k = 0.1966 0.0000 0.0000 (  6142 PWs)   bands (ev):

   -12.7874  -5.4137  -4.4919  -4.0881   0.6437   0.8455   1.7059   2.5345

     occupation numbers 
     1.0000   1.0000   1.0000   1.0000   0.0000   0.0000   0.0000   0.0000

          k = 0.2948 0.0569 0.0000 (  6142 PWs)   bands (ev):

   -12.3400  -6.7373  -4.6477  -4.0558   0.2795   1.4179   2.0201   2.2125

     occupation numbers 
     1.0000   1.0000   1.0000   1.0000   0.0000   0.0000   0.0000   0.0000

          k = 0.3931 0.1138 0.0000 (  6168 PWs)   bands (ev):

   -11.7005  -8.0582  -5.0691  -3.4335  -0.1072   0.1438   2.9581   3.6520

     occupation numbers 
     1.0000   1.0000   1.0000   1.0000   0.0000   0.0000   0.0000   0.0000

          k = 0.4914 0.1707 0.0000 (  6168 PWs)   bands (ev):

   -11.0032  -9.1174  -5.2877  -2.7601  -0.8766  -0.3168   3.8815   4.0113

     occupation numbers 
     1.0000   1.0000   1.0000   1.0000   0.0000   0.0000   0.0000   0.0000

          k =-0.3931-0.3413-0.0000 (  6178 PWs)   bands (ev):

   -11.0046  -9.1124  -5.2912  -2.7611  -0.8726  -0.3189   3.8866   4.0068

     occupation numbers 
     1.0000   1.0000   1.0000   1.0000   0.0000   0.0000   0.0000   0.0000

          k =-0.2948-0.2845-0.0000 (  6176 PWs)   bands (ev):

   -11.7017  -8.0445  -5.0818  -3.4342  -0.1129   0.1545   2.9615   3.5604

     occupation numbers 
     1.0000   1.0000   1.0000   1.0000   0.0000   0.0000   0.0000   0.0000

          k =-0.1966-0.2276-0.0000 (  6151 PWs)   bands (ev):

   -12.3405  -6.7085  -4.6780  -4.0560   0.2724   1.4375   1.9362   2.2151

     occupation numbers 
     1.0000   1.0000   1.0000   1.0000   0.0000   0.0000   0.0000   0.0000

          k =-0.0983-0.1707-0.0000 (  6131 PWs)   bands (ev):

   -12.7876  -5.3565  -4.4919  -4.1515   0.6279   0.7817   1.7074   2.6212

     occupation numbers 
     1.0000   1.0000   1.0000   1.0000   0.0000   0.0000   0.0000   0.0000

          k = 0.0000-0.1138-0.0000 (  6166 PWs)   bands (ev):

   -13.0152  -4.7139  -4.3149  -3.7748   0.0917   1.0134   1.2858   1.4516

     occupation numbers 
     1.0000   1.0000   1.0000   1.0000   0.0000   0.0000   0.0000   0.0000

          k = 0.3931 0.0000 0.0000 (  6178 PWs)   bands (ev):

   -11.7973  -7.7394  -5.4179  -3.5275   0.4218   1.5062   1.7177   2.8353

     occupation numbers 
     1.0000   1.0000   1.0000   1.0000   0.0000   0.0000   0.0000   0.0000

          k = 0.4914 0.0569 0.0000 (  6177 PWs)   bands (ev):

   -11.0934  -8.7726  -5.9328  -2.8450  -0.5787   1.3212   3.1620   3.3201

     occupation numbers 
     1.0000   1.0000   1.0000   1.0000   0.0000   0.0000   0.0000   0.0000

          k = 0.5897 0.1138 0.0000 (  6153 PWs)   bands (ev):

   -10.5690  -9.4148  -6.1085  -2.3426  -1.1922   1.2225   2.9507   4.3120

     occupation numbers 
     1.0000   1.0000   1.0000   1.0661   0.0000   0.0000   0.0000   0.0000

          k =-0.2948-0.3982-0.0000 (  6179 PWs)   bands (ev):

   -11.0985  -8.7486  -5.9523  -2.8488  -0.5603   1.3102   3.1459   3.2365

     occupation numbers 
     1.0000   1.0000   1.0000   1.0000   0.0000   0.0000   0.0000   0.0000

          k =-0.1966-0.3413-0.0000 (  6170 PWs)   bands (ev):

   -11.8001  -7.6956  -5.4612  -3.5293   0.4530   1.4079   1.7241   2.8417

     occupation numbers 
     1.0000   1.0000   1.0000   1.0000   0.0000   0.0000   0.0000   0.0000

          k =-0.0983-0.2845-0.0000 (  6164 PWs)   bands (ev):

   -12.3413  -6.6769  -4.7131  -4.0565   0.2019   1.4578   2.0137   2.2169

     occupation numbers 
     1.0000   1.0000   1.0000   1.0000   0.0000   0.0000   0.0000   0.0000

          k = 0.0000-0.2276-0.0000 (  6144 PWs)   bands (ev):

   -12.6752  -5.7984  -4.3821  -4.1695  -0.2285   1.8356   2.3245   2.3719

     occupation numbers 
     1.0000   1.0000   1.0000   1.0000   0.0000   0.0000   0.0000   0.0000

          k = 0.5897 0.0000 0.0000 (  6174 PWs)   bands (ev):

   -10.3642  -9.5106  -6.4798  -2.1423  -1.3084   2.5362   2.9761   3.2611

     occupation numbers 
     1.0000   1.0000   1.0000   0.9111   0.0000   0.0000   0.0000   0.0000

          k = 0.6879 0.0569 0.0000 (  6168 PWs)   bands (ev):

   -10.3840  -9.4749  -6.4966  -2.1577  -1.2810   2.5232   2.8789   3.2734

     occupation numbers 
     1.0000   1.0000   1.0000   0.9507   0.0000   0.0000   0.0000   0.0000

          k =-0.1966-0.4551-0.0000 (  6172 PWs)   bands (ev):

   -11.1049  -8.7198  -5.9773  -2.8538  -0.5384   1.2305   3.1276   3.3202

     occupation numbers 
     1.0000   1.0000   1.0000   1.0000   0.0000   0.0000   0.0000   0.0000

          k =-0.0983-0.3982-0.0000 (  6186 PWs)   bands (ev):

   -11.7063  -7.9993  -5.1290  -3.4376  -0.1849   0.1890   2.9646   3.6466

     occupation numbers 
     1.0000   1.0000   1.0000   1.0000   0.0000   0.0000   0.0000   0.0000

          k =-0.0000-0.3413-0.0000 (  6182 PWs)   bands (ev):

   -12.1266  -7.2825  -4.5511  -3.8469  -0.6983   0.9007   2.4688   4.2097

     occupation numbers 
     1.0000   1.0000   1.0000   1.0000   0.0000   0.0000   0.0000   0.0000

          k = 0.7862 0.0000 0.0000 (  6138 PWs)   bands (ev):

   -10.5993  -9.3497  -6.1468  -2.3662  -1.1414   1.1378   2.9208   4.3094

     occupation numbers 
     1.0000   1.0000   1.0000   1.0552   0.0000   0.0000   0.0000   0.0000

          k =-0.0983-0.5120-0.0000 (  6188 PWs)   bands (ev):

   -11.0248  -9.0474  -5.3435  -2.7769  -0.8203  -0.3931   3.8893   3.9670

     occupation numbers 
     1.0000   1.0000   1.0000   1.0000   0.0000   0.0000   0.0000   0.0000

          k = 0.0000-0.4551-0.0000 (  6192 PWs)   bands (ev):

   -11.4327  -8.5656  -4.8080  -3.1715  -1.0220  -0.3417   3.3287   4.9508

     occupation numbers 
     1.0000   1.0000   1.0000   1.0000   0.0000   0.0000   0.0000   0.0000

          k =-0.9828-0.0000-0.0000 (  6154 PWs)   bands (ev):

   -10.9658  -9.2326  -4.8973  -2.7211  -1.1347  -0.9860   4.1400   4.7052

     occupation numbers 
     1.0000   1.0000   1.0000   1.0001   0.0000   0.0000   0.0000   0.0000

     the Fermi energy is    -1.9965 ev

!    total energy              =     -22.74286212 Ry
     Harris-Foulkes estimate   =     -22.74286212 Ry
     estimated scf accuracy    <          5.3E-12 Ry

     The total energy is the sum of the following terms:

     one-electron contribution =     -38.35770158 Ry
     hartree contribution      =      20.38214487 Ry
     xc contribution           =     -12.16837498 Ry
     ewald contribution        =       7.40077673 Ry
     smearing contrib. (-TS)   =       0.00029285 Ry

     convergence has been achieved in   9 iterations

     negative rho (up, down):  1.204E-06 0.000E+00

     Forces acting on atoms (cartesian axes, Ry/au):

     atom    1 type  1   force =     0.00000000   -0.00740690   -0.00000000
     atom    2 type  1   force =     0.00000000    0.00740690    0.00000000
     The non-local contrib.  to forces
     atom    1 type  1   force =     0.00000000   -0.00450129   -0.00000000
     atom    2 type  1   force =     0.00000000    0.00446222    0.00000000
     The ionic contribution  to forces
     atom    1 type  1   force =     0.00000000   -0.01275018   -0.00000000
     atom    2 type  1   force =    -0.00000000    0.01275018    0.00000000
     The local contribution  to forces
     atom    1 type  1   force =     0.00000000    0.00930882   -0.00000000
     atom    2 type  1   force =    -0.00000000   -0.00929107    0.00000000
     The core correction contribution to forces
     atom    1 type  1   force =     0.00000000    0.00049763    0.00000000
     atom    2 type  1   force =    -0.00000000   -0.00055242    0.00000000
     The Hubbard contrib.    to forces
     atom    1 type  1   force =     0.00000000    0.00000000    0.00000000
     atom    2 type  1   force =     0.00000000    0.00000000    0.00000000
     The SCF correction term to forces
     atom    1 type  1   force =     0.00000000    0.00000007   -0.00000000
     atom    2 type  1   force =    -0.00000000   -0.00000007   -0.00000000

     Total force =     0.010475     Total SCF correction =     0.000000


     Computing stress (Cartesian axis) and pressure


     negative rho (up, down):  1.204E-06 0.000E+00
          total   stress  (Ry/bohr**3)                   (kbar)     P=    1.76
   0.00002340  -0.00000000   0.00000000          3.44     -0.00      0.00
  -0.00000000   0.00001248   0.00000000         -0.00      1.84      0.00
   0.00000000   0.00000000  -0.00000007          0.00      0.00     -0.01

     kinetic stress (kbar)    499.93     -0.00      0.00
                               -0.00    503.50      0.00
                                0.00      0.00    632.01

     local   stress (kbar)  -6199.27      0.00      0.00
                                0.00  -6179.39      0.00
                                0.00      0.00   6417.04

     nonloc. stress (kbar)    433.41     -0.00      0.00
                               -0.00    430.64      0.00
                                0.00      0.00    367.39

     hartree stress (kbar)   2749.32      0.00     -0.00
                                0.00   2747.11      0.00
                               -0.00      0.00  -2673.86

     exc-cor stress (kbar)    757.66     -0.00     -0.00
                               -0.00    757.49      0.00
                               -0.00      0.00    748.83

     corecor stress (kbar)  -1006.57      0.00      0.00
                                0.00  -1006.25     -0.00
                                0.00     -0.00   -998.59

     ewald   stress (kbar)   2768.96     -0.00     -0.00
                               -0.00   2748.74     -0.00
                               -0.00     -0.00  -4492.83

     hubbard stress (kbar)      0.00      0.00      0.00
                                0.00      0.00      0.00
                                0.00      0.00      0.00

     london  stress (kbar)      0.00      0.00      0.00
                                0.00      0.00      0.00
                                0.00      0.00      0.00

     DFT-D3  stress (kbar)      0.00      0.00      0.00
                                0.00      0.00      0.00
                                0.00      0.00      0.00

     XDM     stress (kbar)      0.00      0.00      0.00
                                0.00      0.00      0.00
                                0.00      0.00      0.00

     dft-nl  stress (kbar)      0.00      0.00      0.00
                                0.00      0.00      0.00
                                0.00      0.00      0.00

     TS-vdW  stress (kbar)      0.00      0.00      0.00
                                0.00      0.00      0.00
                                0.00      0.00      0.00



     number of scf cycles    =   4
     number of bfgs steps    =   3

     enthalpy old            =     -22.7423793729 Ry
     enthalpy new            =     -22.7428621223 Ry

     CASE: enthalpy_new < enthalpy_old

     new trust radius        =       0.0169710629 bohr
WARNING! With ibrav=0, cell_dofree='ibrav' does not have any effect. 
     new conv_thr            =            9.7E-11 Ry

     new unit-cell volume =   1067.57168 a.u.^3 (   158.19780 Ang^3 )
     density =      0.58960 g/cm^3

CELL_PARAMETERS (angstrom)
   1.953205822  -3.374797410   0.000000000
   1.953205822   3.374797410   0.000000000
  -0.000000000  -0.000000000  11.999819840

ATOMIC_POSITIONS (crystal)
Si      -0.002140796   0.002140796  -0.000000000
Si       0.332140796   0.667859204   0.000000000



     Writing output data file silicene.save/
     NEW-OLD atomic charge density approx. for the potential

     negative rho (up, down):  1.425E-06 0.000E+00
     extrapolated charge    8.03975, renormalised to    8.00000

     total cpu time spent up to now is      259.8 secs

     Self-consistent Calculation

     iteration #  1     ecut=    50.00 Ry     beta= 0.40
     Davidson diagonalization with overlap
     ethr =  1.00E-06,  avg # of iterations =  4.5

     negative rho (up, down):  1.306E-06 0.000E+00

     total cpu time spent up to now is      266.6 secs

     total energy              =     -22.74271246 Ry
[...]

     negative rho (up, down):  2.019E-06 0.000E+00

     total cpu time spent up to now is      675.6 secs

     total energy              =     -22.74165624 Ry
     Harris-Foulkes estimate   =     -22.74626717 Ry
     estimated scf accuracy    <       0.01541250 Ry

     iteration #  3     ecut=    50.00 Ry     beta= 0.40
     Davidson diagonalization with overlap
     ethr =  1.93E-04,  avg # of iterations =  1.8

     negative rho (up, down):  1.777E-06 0.000E+00

     total cpu time spent up to now is      680.5 secs

     total energy              =     -22.74288843 Ry
     Harris-Foulkes estimate   =     -22.74298862 Ry
     estimated scf accuracy    <       0.00047600 Ry

     iteration #  4     ecut=    50.00 Ry     beta= 0.40
     Davidson diagonalization with overlap
     ethr =  5.95E-06,  avg # of iterations =  4.9

     negative rho (up, down):  1.869E-06 0.000E+00

     total cpu time spent up to now is      687.0 secs

     total energy              =     -22.74298881 Ry
     Harris-Foulkes estimate   =     -22.74299002 Ry
     estimated scf accuracy    <       0.00000641 Ry

     iteration #  5     ecut=    50.00 Ry     beta= 0.40
     Davidson diagonalization with overlap
     ethr =  8.01E-08,  avg # of iterations =  2.1

     negative rho (up, down):  1.910E-06 0.000E+00

     total cpu time spent up to now is      692.7 secs

     total energy              =     -22.74299111 Ry
     Harris-Foulkes estimate   =     -22.74299057 Ry
     estimated scf accuracy    <       0.00000114 Ry

     iteration #  6     ecut=    50.00 Ry     beta= 0.40
     Davidson diagonalization with overlap
     ethr =  1.42E-08,  avg # of iterations =  2.0

     negative rho (up, down):  1.970E-06 0.000E+00

     total cpu time spent up to now is      697.7 secs

     total energy              =     -22.74299102 Ry
     Harris-Foulkes estimate   =     -22.74299131 Ry
     estimated scf accuracy    <       0.00000066 Ry

     iteration #  7     ecut=    50.00 Ry     beta= 0.40
     Davidson diagonalization with overlap
     ethr =  8.29E-09,  avg # of iterations =  1.1

     negative rho (up, down):  1.997E-06 0.000E+00

     total cpu time spent up to now is      702.5 secs

     total energy              =     -22.74299107 Ry
     Harris-Foulkes estimate   =     -22.74299108 Ry
     estimated scf accuracy    <       0.00000002 Ry

     iteration #  8     ecut=    50.00 Ry     beta= 0.40
     Davidson diagonalization with overlap
     ethr =  2.08E-10,  avg # of iterations =  2.9

     negative rho (up, down):  2.016E-06 0.000E+00

     total cpu time spent up to now is      708.1 secs

     total energy              =     -22.74299108 Ry
     Harris-Foulkes estimate   =     -22.74299108 Ry
     estimated scf accuracy    <          7.0E-09 Ry

     iteration #  9     ecut=    50.00 Ry     beta= 0.40
     Davidson diagonalization with overlap
     ethr =  8.79E-11,  avg # of iterations =  2.2

     negative rho (up, down):  2.029E-06 0.000E+00

     total cpu time spent up to now is      712.9 secs

     total energy              =     -22.74299108 Ry
     Harris-Foulkes estimate   =     -22.74299108 Ry
     estimated scf accuracy    <          1.1E-10 Ry

     iteration # 10     ecut=    50.00 Ry     beta= 0.40
     Davidson diagonalization with overlap
     ethr =  1.32E-12,  avg # of iterations =  1.9

     negative rho (up, down):  2.037E-06 0.000E+00

     total cpu time spent up to now is      717.7 secs

     total energy              =     -22.74299108 Ry
     Harris-Foulkes estimate   =     -22.74299108 Ry
     estimated scf accuracy    <          1.4E-10 Ry

     iteration # 11     ecut=    50.00 Ry     beta= 0.40
     Davidson diagonalization with overlap
     ethr =  1.32E-12,  avg # of iterations =  1.7

     negative rho (up, down):  2.042E-06 0.000E+00

     total cpu time spent up to now is      722.3 secs

     total energy              =     -22.74299108 Ry
     Harris-Foulkes estimate   =     -22.74299108 Ry
     estimated scf accuracy    <          1.1E-11 Ry

     iteration # 12     ecut=    50.00 Ry     beta= 0.40
     Davidson diagonalization with overlap
     ethr =  1.35E-13,  avg # of iterations =  1.5

     negative rho (up, down):  2.045E-06 0.000E+00

     total cpu time spent up to now is      727.1 secs

     total energy              =     -22.74299108 Ry
     Harris-Foulkes estimate   =     -22.74299108 Ry
     estimated scf accuracy    <          5.7E-12 Ry

     iteration # 13     ecut=    50.00 Ry     beta= 0.40
     Davidson diagonalization with overlap
     ethr =  1.00E-13,  avg # of iterations =  2.0

     negative rho (up, down):  2.049E-06 0.000E+00

     total cpu time spent up to now is      732.3 secs

     End of self-consistent calculation

          k = 0.0000 0.0000 0.0000 (  6393 PWs)   bands (ev):

   -13.1131  -4.8189  -3.5566  -3.5557  -0.4362   0.8105   0.8110   1.3214

     occupation numbers 
     1.0000   1.0000   1.0000   1.0000   0.0000   0.0000   0.0000   0.0000

          k = 0.0982 0.0567 0.0000 (  6397 PWs)   bands (ev):

   -12.9991  -4.7077  -4.3837  -3.7434   0.0511   0.9716   1.2270   1.4489

     occupation numbers 
     1.0000   1.0000   1.0000   1.0000   0.0000   0.0000   0.0000   0.0000

          k = 0.1963 0.1133 0.0000 (  6370 PWs)   bands (ev):

   -12.6609  -5.8573  -4.3779  -4.1402  -0.2218   2.2619   2.3101   2.3982

     occupation numbers 
     1.0000   1.0000   1.0000   1.0000   0.0000   0.0000   0.0000   0.0000

          k = 0.2945 0.1700 0.0000 (  6368 PWs)   bands (ev):

   -12.1144  -7.3322  -4.5224  -3.8451  -0.6832   0.8454   2.4581   3.8320

     occupation numbers 
     1.0000   1.0000   1.0000   1.0000   0.0000   0.0000   0.0000   0.0000

          k = 0.3926 0.2267 0.0000 (  6384 PWs)   bands (ev):

   -11.4198  -8.6114  -4.7792  -3.1700  -1.0034  -0.3929   3.3113   4.9330

     occupation numbers 
     1.0000   1.0000   1.0000   1.0000   0.0000   0.0000   0.0000   0.0000

          k =-0.4908-0.2833-0.0000 (  6370 PWs)   bands (ev):

   -10.9458  -9.2838  -4.8684  -2.7143  -1.1151  -1.0410   4.1204   4.6624

     occupation numbers 
     1.0000   1.0000   1.0000   1.0001   0.0000   0.0000   0.0000   0.0000

          k = 0.1963-0.0000 0.0000 (  6385 PWs)   bands (ev):

   -12.7728  -5.3968  -4.4871  -4.1462   0.5762   0.7728   1.7031   2.5398

     occupation numbers 
     1.0000   1.0000   1.0000   1.0000   0.0000   0.0000   0.0000   0.0000

          k = 0.2945 0.0567 0.0000 (  6362 PWs)   bands (ev):

   -12.3287  -6.7243  -4.6904  -4.0540   0.2150   1.4047   1.9428   2.2082

     occupation numbers 
     1.0000   1.0000   1.0000   1.0000   0.0000   0.0000   0.0000   0.0000

          k = 0.3926 0.1133 0.0000 (  6368 PWs)   bands (ev):

   -11.6952  -8.0437  -5.1013  -3.4371  -0.1680   0.1392   2.9506   3.5671

     occupation numbers 
     1.0000   1.0000   1.0000   1.0000   0.0000   0.0000   0.0000   0.0000

          k = 0.4908 0.1700 0.0000 (  6385 PWs)   bands (ev):

   -11.0087  -9.0948  -5.3141  -2.7733  -0.8716  -0.3745   3.8686   3.9737

     occupation numbers 
     1.0000   1.0000   1.0000   1.0000   0.0000   0.0000   0.0000   0.0000

          k =-0.3926-0.3400-0.0000 (  6385 PWs)   bands (ev):

   -11.0087  -9.0948  -5.3141  -2.7733  -0.8717  -0.3745   3.8686   3.9737

     occupation numbers 
     1.0000   1.0000   1.0000   1.0000   0.0000   0.0000   0.0000   0.0000

          k =-0.2945-0.2833-0.0000 (  6368 PWs)   bands (ev):

   -11.6952  -8.0438  -5.1012  -3.4371  -0.1680   0.1391   2.9505   3.5679

     occupation numbers 
     1.0000   1.0000   1.0000   1.0000   0.0000   0.0000   0.0000   0.0000

          k =-0.1963-0.2267-0.0000 (  6362 PWs)   bands (ev):

   -12.3287  -6.7245  -4.6902  -4.0540   0.2151   1.4045   1.9435   2.2081

     occupation numbers 
     1.0000   1.0000   1.0000   1.0000   0.0000   0.0000   0.0000   0.0000

          k =-0.0982-0.1700-0.0000 (  6385 PWs)   bands (ev):

   -12.7728  -5.3972  -4.4871  -4.1457   0.5763   0.7733   1.7031   2.5390

     occupation numbers 
     1.0000   1.0000   1.0000   1.0000   0.0000   0.0000   0.0000   0.0000

          k = 0.0000-0.1133 0.0000 (  6397 PWs)   bands (ev):

   -12.9991  -4.7077  -4.3842  -3.7428   0.0514   0.9715   1.2267   1.4489

     occupation numbers 
     1.0000   1.0000   1.0000   1.0000   0.0000   0.0000   0.0000   0.0000

          k = 0.3926-0.0000 0.0000 (  6364 PWs)   bands (ev):

   -11.7908  -7.7239  -5.4504  -3.5301   0.4158   1.4159   1.6606   2.8294

     occupation numbers 
     1.0000   1.0000   1.0000   1.0000   0.0000   0.0000   0.0000   0.0000

          k = 0.4908 0.0567 0.0000 (  6379 PWs)   bands (ev):

   -11.0953  -8.7554  -5.9536  -2.8552  -0.5791   1.2490   3.1310   3.2411

     occupation numbers 
     1.0000   1.0000   1.0000   1.0000   0.0000   0.0000   0.0000   0.0000

          k = 0.5889 0.1133 0.0000 (  6366 PWs)   bands (ev):

   -10.5800  -9.3965  -6.1196  -2.3606  -1.1902   1.1558   2.9278   4.2830

     occupation numbers 
     1.0000   1.0000   1.0000   1.0630   0.0000   0.0000   0.0000   0.0000

          k =-0.2945-0.3967-0.0000 (  6379 PWs)   bands (ev):

   -11.0953  -8.7555  -5.9535  -2.8552  -0.5792   1.2491   3.1311   3.2419

     occupation numbers 
     1.0000   1.0000   1.0000   1.0000   0.0000   0.0000   0.0000   0.0000

          k =-0.1963-0.3400-0.0000 (  6364 PWs)   bands (ev):

   -11.7908  -7.7243  -5.4500  -3.5301   0.4156   1.4166   1.6607   2.8293

     occupation numbers 
     1.0000   1.0000   1.0000   1.0000   0.0000   0.0000   0.0000   0.0000

          k =-0.0982-0.2833-0.0000 (  6362 PWs)   bands (ev):

   -12.3287  -6.7248  -4.6899  -4.0540   0.2157   1.4044   1.9429   2.2081

     occupation numbers 
     1.0000   1.0000   1.0000   1.0000   0.0000   0.0000   0.0000   0.0000

          k = 0.0000-0.2267 0.0000 (  6370 PWs)   bands (ev):

   -12.6609  -5.8578  -4.3779  -4.1396  -0.2212   1.8298   2.2618   2.3098

     occupation numbers 
     1.0000   1.0000   1.0000   1.0000   0.0000   0.0000   0.0000   0.0000

          k = 0.5889-0.0000 0.0000 (  6380 PWs)   bands (ev):

   -10.3784  -9.4930  -6.4848  -2.1633  -1.3065   2.5185   2.8828   3.2050

     occupation numbers 
     1.0000   1.0000   1.0000   0.9371   0.0000   0.0000   0.0000   0.0000

          k = 0.6871 0.0567 0.0000 (  6380 PWs)   bands (ev):

   -10.3783  -9.4933  -6.4847  -2.1632  -1.3066   2.5186   2.8835   3.2050

     occupation numbers 
     1.0000   1.0000   1.0000   0.9369   0.0000   0.0000   0.0000   0.0000

          k =-0.1963-0.4533-0.0000 (  6379 PWs)   bands (ev):

   -11.0953  -8.7557  -5.9533  -2.8552  -0.5793   1.2498   3.1313   3.2412

     occupation numbers 
     1.0000   1.0000   1.0000   1.0000   0.0000   0.0000   0.0000   0.0000

          k =-0.0982-0.3967-0.0000 (  6368 PWs)   bands (ev):

   -11.6952  -8.0442  -5.1008  -3.4371  -0.1673   0.1388   2.9505   3.5672

     occupation numbers 
     1.0000   1.0000   1.0000   1.0000   0.0000   0.0000   0.0000   0.0000

          k =-0.0000-0.3400 0.0000 (  6368 PWs)   bands (ev):

   -12.1144  -7.3326  -4.5218  -3.8451  -0.6826   0.8451   2.4580   3.8317

     occupation numbers 
     1.0000   1.0000   1.0000   1.0000   0.0000   0.0000   0.0000   0.0000

          k = 0.7852-0.0000 0.0000 (  6366 PWs)   bands (ev):

   -10.5798  -9.3970  -6.1193  -2.3605  -1.1906   1.1566   2.9280   4.2829

     occupation numbers 
     1.0000   1.0000   1.0000   1.0630   0.0000   0.0000   0.0000   0.0000

          k =-0.0982-0.5100-0.0000 (  6385 PWs)   bands (ev):

   -11.0086  -9.0953  -5.3136  -2.7732  -0.8721  -0.3739   3.8685   3.9740

     occupation numbers 
     1.0000   1.0000   1.0000   1.0000   0.0000   0.0000   0.0000   0.0000

          k =-0.0000-0.4533 0.0000 (  6384 PWs)   bands (ev):

   -11.4197  -8.6118  -4.7787  -3.1699  -1.0028  -0.3933   3.3112   4.9330

     occupation numbers 
     1.0000   1.0000   1.0000   1.0000   0.0000   0.0000   0.0000   0.0000

          k =-0.9815 0.0000-0.0000 (  6370 PWs)   bands (ev):

   -10.9456  -9.2844  -4.8679  -2.7142  -1.1145  -1.0415   4.1204   4.6621

     occupation numbers 
     1.0000   1.0000   1.0000   1.0001   0.0000   0.0000   0.0000   0.0000

     the Fermi energy is    -2.0076 ev

!    total energy              =     -22.74299108 Ry
     Harris-Foulkes estimate   =     -22.74299108 Ry
     estimated scf accuracy    <          1.2E-13 Ry

     The total energy is the sum of the following terms:

     one-electron contribution =     -38.15368954 Ry
     hartree contribution      =      20.27402618 Ry
     xc contribution           =     -12.16020368 Ry
     ewald contribution        =       7.29658247 Ry
     smearing contrib. (-TS)   =       0.00029349 Ry

     convergence has been achieved in  13 iterations

     negative rho (up, down):  2.049E-06 0.000E+00

     Forces acting on atoms (cartesian axes, Ry/au):

     atom    1 type  1   force =     0.00000000    0.00005850   -0.00000000
     atom    2 type  1   force =     0.00000000   -0.00005850    0.00000000
     The non-local contrib.  to forces
     atom    1 type  1   force =     0.00000000    0.00003120   -0.00000000
     atom    2 type  1   force =     0.00000000   -0.00003603    0.00000000
     The ionic contribution  to forces
     atom    1 type  1   force =    -0.00000000    0.00007595    0.00000000
     atom    2 type  1   force =     0.00000000   -0.00007595   -0.00000000
     The local contribution  to forces
     atom    1 type  1   force =    -0.00000000   -0.00004524    0.00000000
     atom    2 type  1   force =     0.00000000    0.00005001    0.00000000
     The core correction contribution to forces
     atom    1 type  1   force =    -0.00000000   -0.00001275    0.00000000
     atom    2 type  1   force =    -0.00000000   -0.00000588    0.00000000
     The Hubbard contrib.    to forces
     atom    1 type  1   force =     0.00000000    0.00000000    0.00000000
     atom    2 type  1   force =     0.00000000    0.00000000    0.00000000
     The SCF correction term to forces
     atom    1 type  1   force =    -0.00000000   -0.00000000   -0.00000000
     atom    2 type  1   force =     0.00000000    0.00000000   -0.00000000

     Total force =     0.000083     Total SCF correction =     0.000000


     Computing stress (Cartesian axis) and pressure


     negative rho (up, down):  2.049E-06 0.000E+00
          total   stress  (Ry/bohr**3)                   (kbar)     P=    0.01
   0.00000007  -0.00000000   0.00000000          0.01     -0.00      0.00
  -0.00000000   0.00000013   0.00000000         -0.00      0.02      0.00
   0.00000000   0.00000000  -0.00000006          0.00      0.00     -0.01

     kinetic stress (kbar)    497.44     -0.00      0.00
                               -0.00    497.41     -0.00
                                0.00     -0.00    627.79

     local   stress (kbar)  -6123.66     -0.00     -0.00
                               -0.00  -6123.81     -0.00
                               -0.00     -0.00   6345.94

     nonloc. stress (kbar)    428.73     -0.00      0.00
                               -0.00    428.76     -0.00
                                0.00     -0.00    365.40

     hartree stress (kbar)   2718.80      0.00     -0.00
                                0.00   2718.81      0.00
                               -0.00      0.00  -2644.37

     exc-cor stress (kbar)    753.94      0.00      0.00
                                0.00    753.94     -0.00
                                0.00     -0.00    745.29

     corecor stress (kbar)  -1001.11     -0.00      0.00
                               -0.00  -1001.11     -0.00
                                0.00     -0.00   -993.46

     ewald   stress (kbar)   2725.87      0.00     -0.00
                                0.00   2726.02     -0.00
                               -0.00     -0.00  -4446.60

     hubbard stress (kbar)      0.00      0.00      0.00
                                0.00      0.00      0.00
                                0.00      0.00      0.00

     london  stress (kbar)      0.00      0.00      0.00
                                0.00      0.00      0.00
                                0.00      0.00      0.00

     DFT-D3  stress (kbar)      0.00      0.00      0.00
                                0.00      0.00      0.00
                                0.00      0.00      0.00

     XDM     stress (kbar)      0.00      0.00      0.00
                                0.00      0.00      0.00
                                0.00      0.00      0.00

     dft-nl  stress (kbar)      0.00      0.00      0.00
                                0.00      0.00      0.00
                                0.00      0.00      0.00

     TS-vdW  stress (kbar)      0.00      0.00      0.00
                                0.00      0.00      0.00
                                0.00      0.00      0.00



     Writing output data file silicene.save/

     init_run     :      7.65s CPU      7.79s WALL (       2 calls)
     electrons    :    564.39s CPU    576.11s WALL (      13 calls)
     update_pot   :     37.76s CPU     37.99s WALL (      11 calls)
     forces       :     31.20s CPU     31.73s WALL (      13 calls)
     stress       :     78.74s CPU     79.95s WALL (      13 calls)

     Called by init_run:
     wfcinit      :      3.22s CPU      3.25s WALL (       2 calls)
     wfcinit:atom :      0.06s CPU      0.06s WALL (      62 calls)
     wfcinit:wfcr :      2.85s CPU      2.88s WALL (      62 calls)
     potinit      :      1.03s CPU      1.04s WALL (       2 calls)
     hinit0       :      2.99s CPU      3.01s WALL (       2 calls)

     Called by electrons:
     c_bands      :    448.13s CPU    451.58s WALL (     108 calls)
     sum_band     :     90.90s CPU     97.44s WALL (     108 calls)
     v_of_rho     :      7.86s CPU      7.94s WALL (     113 calls)
     v_h          :      0.50s CPU      0.51s WALL (     113 calls)
     v_xc         :      9.05s CPU      9.15s WALL (     139 calls)
     newd         :     18.41s CPU     20.47s WALL (     113 calls)
     mix_rho      :      1.25s CPU      1.35s WALL (     108 calls)

     Called by c_bands:
     init_us_2    :     13.98s CPU     14.04s WALL (    7564 calls)
     cegterg      :    400.85s CPU    404.03s WALL (    3348 calls)

     Called by sum_band:
     sum_band:bec :      0.05s CPU      0.05s WALL (    3348 calls)
     addusdens    :     19.53s CPU     25.90s WALL (     108 calls)

     Called by *egterg:
     h_psi        :    327.73s CPU    330.39s WALL (   11643 calls)
     s_psi        :     29.62s CPU     29.83s WALL (   11643 calls)
     g_psi        :      1.83s CPU      1.84s WALL (    8233 calls)
     cdiaghg      :      1.35s CPU      1.37s WALL (   10992 calls)
     cegterg:over :     16.69s CPU     16.84s WALL (    8233 calls)
     cegterg:upda :     11.03s CPU     11.13s WALL (    8233 calls)
     cegterg:last :      7.34s CPU      7.39s WALL (    3517 calls)

     Called by h_psi:
     h_psi:pot    :    326.66s CPU    329.31s WALL (   11643 calls)
     h_psi:calbec :     32.01s CPU     32.30s WALL (   11643 calls)
     vloc_psi     :    265.01s CPU    267.20s WALL (   11643 calls)
     add_vuspsi   :     29.53s CPU     29.75s WALL (   11643 calls)

     General routines
     calbec       :     50.06s CPU     50.44s WALL (   17006 calls)
     fft          :      5.69s CPU      5.74s WALL (    1787 calls)
     ffts         :      0.68s CPU      0.68s WALL (     221 calls)
     fftw         :    275.04s CPU    277.08s WALL (  163778 calls)
     interpolate  :      0.74s CPU      0.75s WALL (     113 calls)

     Parallel routines

     PWSCF        :  12m 2.35s CPU  12m16.75s WALL


   This run was terminated on:  22:35:42  22Sep2023            

=------------------------------------------------------------------------------=
   JOB DONE.
=------------------------------------------------------------------------------=
