### Running on host: LAPTOP-C0A2DPIS

     Program PWSCF v.6.4.1 starts on 22Sep2023 at 21:11: 5 

     This program is part of the open-source Quantum ESPRESSO suite
     for quantum simulation of materials; please cite
         "P. Giannozzi et al., J. Phys.:Condens. Matter 21 395502 (2009);
         "P. Giannozzi et al., J. Phys.:Condens. Matter 29 465901 (2017);
          URL http://www.quantum-espresso.org", 
     in publications or presentations arising from this work. More details at
     http://www.quantum-espresso.org/quote

     Parallel version (MPI), running on     1 processors

     MPI processes distributed on     1 nodes
     Reading input from silicene_scf_ecutwfc-60.in

     Current dimensions of program PWSCF are:
     Max number of different atomic species (ntypx) = 10
     Max number of k-points (npk) =  40000
     Max angular momentum in pseudopotentials (lmaxx) =  3
     Message from routine read_upf::
     Pseudo file Si.pbe-n-rrkjus_psl.1.0.0.UPF has been fixed on the fly.
To avoid this message in the future, permanently fix 
 your pseudo files following these instructions: 
https://gitlab.com/QEF/q-e/blob/master/upftools/how_to_fix_upf.md

     Subspace diagonalization in iterative solution of the eigenvalue problem:
     a serial algorithm will be used

     Message from routine setup:
     DEPRECATED: symmetry with ibrav=0, use correct ibrav instead

     G-vector sticks info
     --------------------
     sticks:   dense  smooth     PW     G-vecs:    dense   smooth      PW
     Sum         859     859    265                64713    64713   11083



     bravais-lattice index     =            0
     lattice parameter (alat)  =       7.2375  a.u.
     unit-cell volume          =    1032.2806 (a.u.)^3
     number of atoms/cell      =            2
     number of atomic types    =            1
     number of electrons       =         8.00
     number of Kohn-Sham states=            8
     kinetic-energy cutoff     =      60.0000  Ry
     charge density cutoff     =     240.0000  Ry
     convergence threshold     =      4.0E-10
     mixing beta               =       0.4000
     number of iterations used =            8  plain     mixing
     Exchange-correlation      = PBE ( 1  4  3  4 0 0)

     celldm(1)=   7.237514  celldm(2)=   0.000000  celldm(3)=   0.000000
     celldm(4)=   0.000000  celldm(5)=   0.000000  celldm(6)=   0.000000

     crystal axes: (cart. coord. in units of alat)
               a(1) = (   0.502620  -0.864507   0.000000 )  
               a(2) = (   0.502620   0.864507   0.000000 )  
               a(3) = (   0.000000   0.000000   3.133218 )  

     reciprocal axes: (cart. coord. in units 2 pi/alat)
               b(1) = (  0.994786 -0.578364  0.000000 )  
               b(2) = (  0.994786  0.578364 -0.000000 )  
               b(3) = ( -0.000000  0.000000  0.319161 )  


     PseudoPot. # 1 for Si read from file:
     /home/meyn/q-e-qe-7.1/pseudo/Si.pbe-n-rrkjus_psl.1.0.0.UPF
     MD5 check sum: 56671f82560c68743c116fe4c72cdc4c
     Pseudo is Ultrasoft + core correction, Zval =  4.0
     Generated using "atomic" code by A. Dal Corso v.5.1.2
     Using radial grid of 1141 points,  6 beta functions with: 
                l(1) =   0
                l(2) =   0
                l(3) =   1
                l(4) =   1
                l(5) =   2
                l(6) =   2
     Q(r) pseudized with 0 coefficients 


     atomic species   valence    mass     pseudopotential
        Si             4.00    28.08550     Si( 1.00)

      4 Sym. Ops. (no inversion) found


                                    s                        frac. trans.

      isym =  1     identity                                     

 cryst.   s( 1) = (     1          0          0      )
                  (     0          1          0      )
                  (     0          0          1      )

 cart.    s( 1) = (  1.0000000  0.0000000  0.0000000 )
                  (  0.0000000  1.0000000  0.0000000 )
                  (  0.0000000  0.0000000  1.0000000 )


      isym =  2     180 deg rotation - cart. axis [0,1,0]        

 cryst.   s( 2) = (     0         -1          0      )
                  (    -1          0          0      )
                  (     0          0         -1      )

 cart.    s( 2) = ( -1.0000000  0.0000000  0.0000000 )
                  (  0.0000000  1.0000000  0.0000000 )
                  (  0.0000000  0.0000000 -1.0000000 )


      isym =  3     inv. 180 deg rotation - cart. axis [0,0,1]   

 cryst.   s( 3) = (     1          0          0      )
                  (     0          1          0      )
                  (     0          0         -1      )

 cart.    s( 3) = (  1.0000000  0.0000000  0.0000000 )
                  (  0.0000000  1.0000000  0.0000000 )
                  (  0.0000000  0.0000000 -1.0000000 )


      isym =  4     inv. 180 deg rotation - cart. axis [1,0,0]   

 cryst.   s( 4) = (     0         -1          0      )
                  (    -1          0          0      )
                  (     0          0          1      )

 cart.    s( 4) = ( -1.0000000  0.0000000  0.0000000 )
                  (  0.0000000  1.0000000  0.0000000 )
                  (  0.0000000  0.0000000  1.0000000 )


   Cartesian axes

     site n.     atom                  positions (alat units)
         1           Si  tau(   1) = (   0.0000000   0.0000000   0.0000000  )
         2           Si  tau(   2) = (   0.5026205   0.2939324   0.0000000  )

   Crystallographic axes

     site n.     atom                  positions (cryst. coord.)
         1           Si  tau(   1) = (  0.0000000  0.0000000  0.0000000  )
         2           Si  tau(   2) = (  0.3300000  0.6700000  0.0000000  )

     number of k points=    31  Marzari-Vanderbilt smearing, width (Ry)=  0.0147
                       cart. coord. in units 2pi/alat
        k(    1) = (   0.0000000   0.0000000   0.0000000), wk =   0.0200000
        k(    2) = (   0.0994786   0.0578364   0.0000000), wk =   0.0800000
        k(    3) = (   0.1989573   0.1156728   0.0000000), wk =   0.0800000
        k(    4) = (   0.2984359   0.1735093   0.0000000), wk =   0.0800000
        k(    5) = (   0.3979146   0.2313457   0.0000000), wk =   0.0800000
        k(    6) = (  -0.4973932  -0.2891821   0.0000000), wk =   0.0400000
        k(    7) = (   0.1989573   0.0000000   0.0000000), wk =   0.0400000
        k(    8) = (   0.2984359   0.0578364   0.0000000), wk =   0.0800000
        k(    9) = (   0.3979146   0.1156728   0.0000000), wk =   0.0800000
        k(   10) = (   0.4973932   0.1735093   0.0000000), wk =   0.0800000
        k(   11) = (  -0.3979146  -0.3470185   0.0000000), wk =   0.0800000
        k(   12) = (  -0.2984359  -0.2891821   0.0000000), wk =   0.0800000
        k(   13) = (  -0.1989573  -0.2313457   0.0000000), wk =   0.0800000
        k(   14) = (  -0.0994786  -0.1735093   0.0000000), wk =   0.0800000
        k(   15) = (   0.0000000  -0.1156728   0.0000000), wk =   0.0400000
        k(   16) = (   0.3979146   0.0000000   0.0000000), wk =   0.0400000
        k(   17) = (   0.4973932   0.0578364   0.0000000), wk =   0.0800000
        k(   18) = (   0.5968718   0.1156728   0.0000000), wk =   0.0800000
        k(   19) = (  -0.2984359  -0.4048549   0.0000000), wk =   0.0800000
        k(   20) = (  -0.1989573  -0.3470185   0.0000000), wk =   0.0800000
        k(   21) = (  -0.0994786  -0.2891821   0.0000000), wk =   0.0800000
        k(   22) = (   0.0000000  -0.2313457   0.0000000), wk =   0.0400000
        k(   23) = (   0.5968718   0.0000000   0.0000000), wk =   0.0400000
        k(   24) = (   0.6963505   0.0578364   0.0000000), wk =   0.0800000
        k(   25) = (  -0.1989573  -0.4626914   0.0000000), wk =   0.0800000
        k(   26) = (  -0.0994786  -0.4048549   0.0000000), wk =   0.0800000
        k(   27) = (  -0.0000000  -0.3470185   0.0000000), wk =   0.0400000
        k(   28) = (   0.7958291   0.0000000   0.0000000), wk =   0.0400000
        k(   29) = (  -0.0994786  -0.5205278   0.0000000), wk =   0.0800000
        k(   30) = (   0.0000000  -0.4626914   0.0000000), wk =   0.0400000
        k(   31) = (  -0.9947864   0.0000000   0.0000000), wk =   0.0200000

                       cryst. coord.
        k(    1) = (   0.0000000   0.0000000   0.0000000), wk =   0.0200000
        k(    2) = (   0.0000000   0.1000000   0.0000000), wk =   0.0800000
        k(    3) = (   0.0000000   0.2000000   0.0000000), wk =   0.0800000
        k(    4) = (   0.0000000   0.3000000   0.0000000), wk =   0.0800000
        k(    5) = (   0.0000000   0.4000000   0.0000000), wk =   0.0800000
        k(    6) = (   0.0000000  -0.5000000   0.0000000), wk =   0.0400000
        k(    7) = (   0.1000000   0.1000000   0.0000000), wk =   0.0400000
        k(    8) = (   0.1000000   0.2000000   0.0000000), wk =   0.0800000
        k(    9) = (   0.1000000   0.3000000   0.0000000), wk =   0.0800000
        k(   10) = (   0.1000000   0.4000000   0.0000000), wk =   0.0800000
        k(   11) = (   0.1000000  -0.5000000   0.0000000), wk =   0.0800000
        k(   12) = (   0.1000000  -0.4000000   0.0000000), wk =   0.0800000
        k(   13) = (   0.1000000  -0.3000000   0.0000000), wk =   0.0800000
        k(   14) = (   0.1000000  -0.2000000   0.0000000), wk =   0.0800000
        k(   15) = (   0.1000000  -0.1000000   0.0000000), wk =   0.0400000
        k(   16) = (   0.2000000   0.2000000   0.0000000), wk =   0.0400000
        k(   17) = (   0.2000000   0.3000000   0.0000000), wk =   0.0800000
        k(   18) = (   0.2000000   0.4000000   0.0000000), wk =   0.0800000
        k(   19) = (   0.2000000  -0.5000000   0.0000000), wk =   0.0800000
        k(   20) = (   0.2000000  -0.4000000   0.0000000), wk =   0.0800000
        k(   21) = (   0.2000000  -0.3000000   0.0000000), wk =   0.0800000
        k(   22) = (   0.2000000  -0.2000000   0.0000000), wk =   0.0400000
        k(   23) = (   0.3000000   0.3000000   0.0000000), wk =   0.0400000
        k(   24) = (   0.3000000   0.4000000   0.0000000), wk =   0.0800000
        k(   25) = (   0.3000000  -0.5000000   0.0000000), wk =   0.0800000
        k(   26) = (   0.3000000  -0.4000000   0.0000000), wk =   0.0800000
        k(   27) = (   0.3000000  -0.3000000   0.0000000), wk =   0.0400000
        k(   28) = (   0.4000000   0.4000000   0.0000000), wk =   0.0400000
        k(   29) = (   0.4000000  -0.5000000   0.0000000), wk =   0.0800000
        k(   30) = (   0.4000000  -0.4000000   0.0000000), wk =   0.0400000
        k(   31) = (  -0.5000000  -0.5000000   0.0000000), wk =   0.0200000

     Dense  grid:    64713 G-vectors     FFT dimensions: (  36,  36, 120)

     Dynamical RAM for                 wfc:       0.99 MB

     Dynamical RAM for     wfc (w. buffer):      31.65 MB

     Dynamical RAM for           str. fact:       0.99 MB

     Dynamical RAM for           local pot:       0.00 MB

     Dynamical RAM for          nlocal pot:       4.45 MB

     Dynamical RAM for                qrad:       1.43 MB

     Dynamical RAM for          rho,v,vnew:       6.52 MB

     Dynamical RAM for               rhoin:       2.17 MB

     Dynamical RAM for            rho*nmix:      15.80 MB

     Dynamical RAM for           G-vectors:       4.20 MB

     Dynamical RAM for          h,s,v(r/c):       0.05 MB

     Dynamical RAM for          <psi|beta>:       0.00 MB

     Dynamical RAM for                 psi:       3.96 MB

     Dynamical RAM for                hpsi:       3.96 MB

     Dynamical RAM for                spsi:       3.96 MB

     Dynamical RAM for      wfcinit/wfcrot:       1.98 MB

     Dynamical RAM for           addusdens:     185.64 MB

     Dynamical RAM for          addusforce:     188.12 MB

     Dynamical RAM for         addusstress:     198.48 MB

     Estimated static dynamical RAM per process >      75.12 MB

     Estimated max dynamical RAM per process >     273.59 MB

     Initial potential from superposition of free atoms

     starting charge    7.99888, renormalised to    8.00000

     negative rho (up, down):  3.014E-06 0.000E+00
     Starting wfcs are    8 randomized atomic wfcs

     total cpu time spent up to now is        3.3 secs

     Self-consistent Calculation

     iteration #  1     ecut=    60.00 Ry     beta= 0.40
     Davidson diagonalization with overlap
     ethr =  1.00E-02,  avg # of iterations =  4.7

     Threshold (ethr) on eigenvalues was too large:
     Diagonalizing with lowered threshold

     Davidson diagonalization with overlap
     ethr =  9.18E-04,  avg # of iterations =  1.0

     negative rho (up, down):  2.005E-06 0.000E+00

     total cpu time spent up to now is       15.2 secs

     total energy              =     -22.74172038 Ry
     Harris-Foulkes estimate   =     -22.76155789 Ry
     estimated scf accuracy    <       0.07228226 Ry

     iteration #  2     ecut=    60.00 Ry     beta= 0.40
     Davidson diagonalization with overlap
     ethr =  9.04E-04,  avg # of iterations =  1.2

     negative rho (up, down):  2.390E-06 0.000E+00

     total cpu time spent up to now is       19.8 secs

     total energy              =     -22.73829714 Ry
     Harris-Foulkes estimate   =     -22.74402548 Ry
     estimated scf accuracy    <       0.01725992 Ry

     iteration #  3     ecut=    60.00 Ry     beta= 0.40
     Davidson diagonalization with overlap
     ethr =  2.16E-04,  avg # of iterations =  3.7

     negative rho (up, down):  1.730E-06 0.000E+00

     total cpu time spent up to now is       26.9 secs

     total energy              =     -22.74015027 Ry
     Harris-Foulkes estimate   =     -22.74034772 Ry
     estimated scf accuracy    <       0.00062614 Ry

     iteration #  4     ecut=    60.00 Ry     beta= 0.40
     Davidson diagonalization with overlap
     ethr =  7.83E-06,  avg # of iterations =  5.6

     negative rho (up, down):  1.896E-06 0.000E+00

     total cpu time spent up to now is       36.0 secs

     total energy              =     -22.74023819 Ry
     Harris-Foulkes estimate   =     -22.74034514 Ry
     estimated scf accuracy    <       0.00017245 Ry

     iteration #  5     ecut=    60.00 Ry     beta= 0.40
     Davidson diagonalization with overlap
     ethr =  2.16E-06,  avg # of iterations =  2.4

     negative rho (up, down):  1.961E-06 0.000E+00

     total cpu time spent up to now is       44.5 secs

     total energy              =     -22.74027253 Ry
     Harris-Foulkes estimate   =     -22.74027441 Ry
     estimated scf accuracy    <       0.00000428 Ry

     iteration #  6     ecut=    60.00 Ry     beta= 0.40
     Davidson diagonalization with overlap
     ethr =  5.35E-08,  avg # of iterations =  2.1

     negative rho (up, down):  1.973E-06 0.000E+00

     total cpu time spent up to now is       51.4 secs

     total energy              =     -22.74027349 Ry
     Harris-Foulkes estimate   =     -22.74027341 Ry
     estimated scf accuracy    <       0.00000008 Ry

     iteration #  7     ecut=    60.00 Ry     beta= 0.40
     Davidson diagonalization with overlap
     ethr =  1.06E-09,  avg # of iterations =  2.3

     negative rho (up, down):  1.968E-06 0.000E+00

     total cpu time spent up to now is       58.5 secs

     total energy              =     -22.74027348 Ry
     Harris-Foulkes estimate   =     -22.74027352 Ry
     estimated scf accuracy    <       0.00000009 Ry

     iteration #  8     ecut=    60.00 Ry     beta= 0.40
     Davidson diagonalization with overlap
     ethr =  1.06E-09,  avg # of iterations =  2.0

     negative rho (up, down):  1.965E-06 0.000E+00

     total cpu time spent up to now is       64.6 secs

     total energy              =     -22.74027349 Ry
     Harris-Foulkes estimate   =     -22.74027349 Ry
     estimated scf accuracy    <          3.0E-09 Ry

     iteration #  9     ecut=    60.00 Ry     beta= 0.40
     Davidson diagonalization with overlap
     ethr =  3.76E-11,  avg # of iterations =  2.2

     negative rho (up, down):  1.964E-06 0.000E+00

     total cpu time spent up to now is       71.5 secs

     End of self-consistent calculation

          k = 0.0000 0.0000 0.0000 (  8065 PWs)   bands (ev):

   -13.2225  -4.8633  -3.4923  -3.3428   0.1596   0.8456   1.1130   1.3578

     occupation numbers 
     1.0000   1.0000   1.0000   1.0000   0.0000   0.0000   0.0000   0.0000

          k = 0.0995 0.0578 0.0000 (  8078 PWs)   bands (ev):

   -13.1046  -4.7484  -4.2095  -3.6395   0.4583   1.2345   1.4830   1.4918

     occupation numbers 
     1.0000   1.0000   1.0000   1.0000   0.0000   0.0000   0.0000   0.0000

          k = 0.1990 0.1157 0.0000 (  8085 PWs)   bands (ev):

   -12.7553  -5.7088  -4.4075  -4.0498   0.0098   1.8816   2.5313   2.5832

     occupation numbers 
     1.0000   1.0000   1.0000   1.0000   0.0000   0.0000   0.0000   0.0000

          k = 0.2984 0.1735 0.0000 (  8103 PWs)   bands (ev):

   -12.1914  -7.2268  -4.4417  -3.8571  -0.4812   1.0431   2.5294   4.1424

     occupation numbers 
     1.0000   1.0000   1.0000   1.0000   0.0000   0.0000   0.0000   0.0000

          k = 0.3979 0.2313 0.0000 (  8085 PWs)   bands (ev):

   -11.4771  -8.5441  -4.7048  -3.1614  -0.8128  -0.2474   3.4094   5.0862

     occupation numbers 
     1.0000   1.0000   1.0000   1.0000   0.0000   0.0000   0.0000   0.0000

          k =-0.4974-0.2892 0.0000 (  8100 PWs)   bands (ev):

   -10.9948  -9.2314  -4.7962  -2.6961  -0.9279  -0.9154   4.2411   4.8298

     occupation numbers 
     1.0000   1.0000   1.0000   1.0000   0.0000   0.0000   0.0000   0.0000

          k = 0.1990 0.0000 0.0000 (  8069 PWs)   bands (ev):

   -12.8733  -5.1847  -4.5224  -4.1215   0.8461   1.1125   1.7502   2.9154

     occupation numbers 
     1.0000   1.0000   1.0000   1.0000   0.0000   0.0000   0.0000   0.0000

          k = 0.2984 0.0578 0.0000 (  8081 PWs)   bands (ev):

   -12.4171  -6.5540  -4.6762  -4.0770   0.4562   1.6593   2.2607   2.3259

     occupation numbers 
     1.0000   1.0000   1.0000   1.0000   0.0000   0.0000   0.0000   0.0000

          k = 0.3979 0.1157 0.0000 (  8090 PWs)   bands (ev):

   -11.7663  -7.9266  -5.0805  -3.4420   0.0628   0.3311   3.0328   3.9694

     occupation numbers 
     1.0000   1.0000   1.0000   1.0000   0.0000   0.0000   0.0000   0.0000

          k = 0.4974 0.1735 0.0000 (  8110 PWs)   bands (ev):

   -11.0628  -9.0187  -5.2819  -2.7595  -0.7258  -0.1544   3.9803   4.1052

     occupation numbers 
     1.0000   1.0000   1.0000   1.0000   0.0000   0.0000   0.0000   0.0000

          k =-0.3979-0.3470 0.0000 (  8097 PWs)   bands (ev):

   -11.0489  -9.0424  -5.2665  -2.7475  -0.7454  -0.1617   3.9925   4.1291

     occupation numbers 
     1.0000   1.0000   1.0000   1.0000   0.0000   0.0000   0.0000   0.0000

          k =-0.2984-0.2892 0.0000 (  8113 PWs)   bands (ev):

   -11.7494  -7.9749  -5.0329  -3.4271   0.0431   0.2937   3.0434   3.8862

     occupation numbers 
     1.0000   1.0000   1.0000   1.0000   0.0000   0.0000   0.0000   0.0000

          k =-0.1990-0.2313 0.0000 (  8084 PWs)   bands (ev):

   -12.4046  -6.6253  -4.5932  -4.0659   0.4332   1.6136   2.2389   2.2796

     occupation numbers 
     1.0000   1.0000   1.0000   1.0000   0.0000   0.0000   0.0000   0.0000

          k =-0.0995-0.1735 0.0000 (  8070 PWs)   bands (ev):

   -12.8658  -5.2818  -4.5158  -4.0062   0.9069   0.9848   1.7541   2.9040

     occupation numbers 
     1.0000   1.0000   1.0000   1.0000   0.0000   0.0000   0.0000   0.0000

          k = 0.0000-0.1157 0.0000 (  8057 PWs)   bands (ev):

   -13.1022  -4.7462  -4.2831  -3.5567   0.4569   1.2978   1.3878   1.4912

     occupation numbers 
     1.0000   1.0000   1.0000   1.0000   0.0000   0.0000   0.0000   0.0000

          k = 0.3979 0.0000 0.0000 (  8115 PWs)   bands (ev):

   -11.8668  -7.5575  -5.4858  -3.5397   0.6441   1.5408   2.1811   2.9087

     occupation numbers 
     1.0000   1.0000   1.0000   1.0000   0.0000   0.0000   0.0000   0.0000

          k = 0.4974 0.0578 0.0000 (  8126 PWs)   bands (ev):

   -11.1559  -8.6249  -5.9924  -2.8473  -0.3915   1.5069   3.1959   3.6287

     occupation numbers 
     1.0000   1.0000   1.0000   1.0000   0.0000   0.0000   0.0000   0.0000

          k = 0.5969 0.1157 0.0000 (  8126 PWs)   bands (ev):

   -10.6175  -9.3139  -6.1387  -2.3289  -1.0468   1.4193   3.0098   4.4507

     occupation numbers 
     1.0000   1.0000   1.0000   1.0410   0.0000   0.0000   0.0000   0.0000

          k =-0.2984-0.4049 0.0000 (  8132 PWs)   bands (ev):

   -11.1149  -8.7073  -5.9424  -2.8119  -0.4547   1.5067   3.2412   3.5360

     occupation numbers 
     1.0000   1.0000   1.0000   1.0000   0.0000   0.0000   0.0000   0.0000

          k =-0.1990-0.3470 0.0000 (  8115 PWs)   bands (ev):

   -11.8339  -7.6635  -5.3972  -3.5109   0.5711   1.6309   1.9756   2.9249

     occupation numbers 
     1.0000   1.0000   1.0000   1.0000   0.0000   0.0000   0.0000   0.0000

          k =-0.0995-0.2892 0.0000 (  8098 PWs)   bands (ev):

   -12.3954  -6.6492  -4.5865  -4.0580   0.4539   1.6023   2.2154   2.2808

     occupation numbers 
     1.0000   1.0000   1.0000   1.0000   0.0000   0.0000   0.0000   0.0000

          k = 0.0000-0.2313 0.0000 (  8077 PWs)   bands (ev):

   -12.7446  -5.7664  -4.3981  -3.9991   0.0314   1.8878   2.4543   2.5067

     occupation numbers 
     1.0000   1.0000   1.0000   1.0000   0.0000   0.0000   0.0000   0.0000

          k = 0.5969 0.0000 0.0000 (  8137 PWs)   bands (ev):

   -10.4307  -9.3685  -6.5439  -2.1418  -1.1346   2.5655   3.0420   3.7253

     occupation numbers 
     1.0000   1.0000   1.0000   1.0451   0.0000   0.0000   0.0000   0.0000

          k = 0.6964 0.0578 0.0000 (  8115 PWs)   bands (ev):

   -10.3426  -9.4832  -6.5161  -2.0683  -1.2246   2.5848   3.1191   3.5419

     occupation numbers 
     1.0000   1.0000   1.0000   0.8949   0.0000   0.0000   0.0000   0.0000

          k =-0.1990-0.4627 0.0000 (  8121 PWs)   bands (ev):

   -11.0834  -8.7544  -5.9328  -2.7855  -0.4884   1.4837   3.2395   3.5644

     occupation numbers 
     1.0000   1.0000   1.0000   1.0000   0.0000   0.0000   0.0000   0.0000

          k =-0.0995-0.4049 0.0000 (  8111 PWs)   bands (ev):

   -11.7174  -8.0278  -5.0275  -3.3997   0.0400   0.2585   3.0571   3.8859

     occupation numbers 
     1.0000   1.0000   1.0000   1.0000   0.0000   0.0000   0.0000   0.0000

          k =-0.0000-0.3470 0.0000 (  8096 PWs)   bands (ev):

   -12.1633  -7.2902  -4.4161  -3.8327  -0.4791   1.0029   2.5434   4.0572

     occupation numbers 
     1.0000   1.0000   1.0000   1.0000   0.0000   0.0000   0.0000   0.0000

          k = 0.7958 0.0000 0.0000 (  8125 PWs)   bands (ev):

   -10.4825  -9.4838  -6.1089  -2.2207  -1.1751   1.3863   3.0241   4.5314

     occupation numbers 
     1.0000   1.0000   1.0000   1.0828   0.0000   0.0000   0.0000   0.0000

          k =-0.0995-0.5205 0.0000 (  8102 PWs)   bands (ev):

   -10.9518  -9.1677  -5.2550  -2.6675  -0.8396  -0.1811   4.0268   4.1161

     occupation numbers 
     1.0000   1.0000   1.0000   1.0000   0.0000   0.0000   0.0000   0.0000

          k = 0.0000-0.4627 0.0000 (  8094 PWs)   bands (ev):

   -11.4091  -8.6428  -4.6931  -3.1038  -0.8243  -0.3204   3.4366   5.0994

     occupation numbers 
     1.0000   1.0000   1.0000   1.0000   0.0000   0.0000   0.0000   0.0000

          k =-0.9948 0.0000 0.0000 (  8076 PWs)   bands (ev):

   -10.8576  -9.3982  -4.7889  -2.5850  -1.0418  -0.9440   4.3100   4.8105

     occupation numbers 
     1.0000   1.0000   1.0000   1.0004   0.0000   0.0000   0.0000   0.0000

     the Fermi energy is    -1.9283 ev

!    total energy              =     -22.74027349 Ry
     Harris-Foulkes estimate   =     -22.74027349 Ry
     estimated scf accuracy    <          3.3E-10 Ry

     The total energy is the sum of the following terms:

     one-electron contribution =     -39.49720875 Ry
     hartree contribution      =      20.98684980 Ry
     xc contribution           =     -12.21478850 Ry
     ewald contribution        =       7.98458886 Ry
     smearing contrib. (-TS)   =       0.00028510 Ry

     convergence has been achieved in   9 iterations

     negative rho (up, down):  1.964E-06 0.000E+00

     Forces acting on atoms (cartesian axes, Ry/au):

     atom    1 type  1   force =     0.00000000    0.02202686    0.00000000
     atom    2 type  1   force =     0.00000000   -0.02202686    0.00000000
     The non-local contrib.  to forces
     atom    1 type  1   force =    -0.00000000    0.02352585    0.00000000
     atom    2 type  1   force =     0.00000000   -0.02356882    0.00000000
     The ionic contribution  to forces
     atom    1 type  1   force =    -0.00000000    0.06637603   -0.00000000
     atom    2 type  1   force =     0.00000000   -0.06637603   -0.00000000
     The local contribution  to forces
     atom    1 type  1   force =    -0.00000000   -0.06512717    0.00000000
     atom    2 type  1   force =     0.00000000    0.06513339    0.00000000
     The core correction contribution to forces
     atom    1 type  1   force =     0.00000000   -0.00275953   -0.00000000
     atom    2 type  1   force =    -0.00000000    0.00277352   -0.00000000
     The Hubbard contrib.    to forces
     atom    1 type  1   force =     0.00000000    0.00000000    0.00000000
     atom    2 type  1   force =     0.00000000    0.00000000    0.00000000
     The SCF correction term to forces
     atom    1 type  1   force =     0.00000000    0.00000034   -0.00000000
     atom    2 type  1   force =    -0.00000000   -0.00000026   -0.00000000

     Total force =     0.031151     Total SCF correction =     0.000000


     Computing stress (Cartesian axis) and pressure


     negative rho (up, down):  1.964E-06 0.000E+00
          total   stress  (Ry/bohr**3)                   (kbar)     P=   12.46
   0.00008736   0.00000000   0.00000000         12.85      0.00      0.00
   0.00000000   0.00016673   0.00000000          0.00     24.53      0.00
   0.00000000   0.00000000  -0.00000001          0.00      0.00     -0.00

     kinetic stress (kbar)    527.62      0.00      0.00
                                0.00    525.46      0.00
                                0.00      0.00    656.14

     local   stress (kbar)  -6541.60     -0.00      0.00
                               -0.00  -6588.56     -0.00
                                0.00     -0.00   6824.16

     nonloc. stress (kbar)    447.74      0.00      0.00
                                0.00    454.64      0.00
                               -0.00      0.00    379.05

     hartree stress (kbar)   2913.56     -0.00     -0.00
                               -0.00   2919.88      0.00
                               -0.00      0.00  -2842.71

     exc-cor stress (kbar)    778.06      0.00     -0.00
                                0.00    778.40     -0.00
                               -0.00     -0.00    768.95

     corecor stress (kbar)  -1036.26     -0.00      0.00
                               -0.00  -1037.16      0.00
                                0.00      0.00  -1027.85

     ewald   stress (kbar)   2923.73      0.00     -0.00
                                0.00   2971.85     -0.00
                               -0.00     -0.00  -4757.74

     hubbard stress (kbar)      0.00      0.00      0.00
                                0.00      0.00      0.00
                                0.00      0.00      0.00

     london  stress (kbar)      0.00      0.00      0.00
                                0.00      0.00      0.00
                                0.00      0.00      0.00

     DFT-D3  stress (kbar)      0.00      0.00      0.00
                                0.00      0.00      0.00
                                0.00      0.00      0.00

     XDM     stress (kbar)      0.00      0.00      0.00
                                0.00      0.00      0.00
                                0.00      0.00      0.00

     dft-nl  stress (kbar)      0.00      0.00      0.00
                                0.00      0.00      0.00
                                0.00      0.00      0.00

     TS-vdW  stress (kbar)      0.00      0.00      0.00
                                0.00      0.00      0.00
                                0.00      0.00      0.00



     Writing output data file silicene.save/

     init_run     :      2.63s CPU      2.71s WALL (       1 calls)
     electrons    :     67.01s CPU     68.21s WALL (       1 calls)
     forces       :      1.56s CPU      1.56s WALL (       1 calls)
     stress       :      4.05s CPU      4.16s WALL (       1 calls)

     Called by init_run:
     wfcinit      :      1.54s CPU      1.58s WALL (       1 calls)
     wfcinit:atom :      0.04s CPU      0.04s WALL (      31 calls)
     wfcinit:wfcr :      1.34s CPU      1.37s WALL (      31 calls)
     potinit      :      0.17s CPU      0.17s WALL (       1 calls)
     hinit0       :      0.72s CPU      0.72s WALL (       1 calls)

     Called by electrons:
     c_bands      :     54.39s CPU     54.76s WALL (      10 calls)
     sum_band     :     10.22s CPU     10.87s WALL (      10 calls)
     v_of_rho     :      0.69s CPU      0.70s WALL (      10 calls)
     v_h          :      0.04s CPU      0.04s WALL (      10 calls)
     v_xc         :      0.80s CPU      0.84s WALL (      12 calls)
     newd         :      1.81s CPU      2.00s WALL (      10 calls)
     mix_rho      :      0.10s CPU      0.12s WALL (      10 calls)

     Called by c_bands:
     init_us_2    :      1.86s CPU      1.87s WALL (     713 calls)
     cegterg      :     48.38s CPU     48.71s WALL (     310 calls)

     Called by sum_band:
     sum_band:bec :      0.01s CPU      0.01s WALL (     310 calls)
     addusdens    :      1.90s CPU      2.50s WALL (      10 calls)

     Called by *egterg:
     h_psi        :     39.03s CPU     39.29s WALL (    1180 calls)
     s_psi        :      4.24s CPU      4.25s WALL (    1180 calls)
     g_psi        :      0.24s CPU      0.24s WALL (     839 calls)
     cdiaghg      :      0.18s CPU      0.18s WALL (    1118 calls)
     cegterg:over :      2.35s CPU      2.36s WALL (     839 calls)
     cegterg:upda :      1.65s CPU      1.66s WALL (     839 calls)
     cegterg:last :      0.91s CPU      0.91s WALL (     314 calls)

     Called by h_psi:
     h_psi:pot    :     38.90s CPU     39.15s WALL (    1180 calls)
     h_psi:calbec :      4.38s CPU      4.38s WALL (    1180 calls)
     vloc_psi     :     30.33s CPU     30.52s WALL (    1180 calls)
     add_vuspsi   :      4.18s CPU      4.24s WALL (    1180 calls)

     General routines
     calbec       :      6.78s CPU      6.80s WALL (    1645 calls)
     fft          :      0.45s CPU      0.46s WALL (     136 calls)
     ffts         :      0.03s CPU      0.03s WALL (      10 calls)
     fftw         :     31.15s CPU     31.36s WALL (   15764 calls)

     Parallel routines

     PWSCF        :   1m15.82s CPU   1m17.30s WALL


   This run was terminated on:  21:12:22  22Sep2023            

=------------------------------------------------------------------------------=
   JOB DONE.
=------------------------------------------------------------------------------=
