### Running on host: LAPTOP-C0A2DPIS

     Program PWSCF v.6.4.1 starts on 22Sep2023 at 21:38:44 

     This program is part of the open-source Quantum ESPRESSO suite
     for quantum simulation of materials; please cite
         "P. Giannozzi et al., J. Phys.:Condens. Matter 21 395502 (2009);
         "P. Giannozzi et al., J. Phys.:Condens. Matter 29 465901 (2017);
          URL http://www.quantum-espresso.org", 
     in publications or presentations arising from this work. More details at
     http://www.quantum-espresso.org/quote

     Parallel version (MPI), running on     1 processors

     MPI processes distributed on     1 nodes
     Reading input from silicene_scf_kpoints-11.in

     Current dimensions of program PWSCF are:
     Max number of different atomic species (ntypx) = 10
     Max number of k-points (npk) =  40000
     Max angular momentum in pseudopotentials (lmaxx) =  3
     Message from routine read_upf::
     Pseudo file Si.pbe-n-rrkjus_psl.1.0.0.UPF has been fixed on the fly.
To avoid this message in the future, permanently fix 
 your pseudo files following these instructions: 
https://gitlab.com/QEF/q-e/blob/master/upftools/how_to_fix_upf.md

     Subspace diagonalization in iterative solution of the eigenvalue problem:
     a serial algorithm will be used

     Message from routine setup:
     DEPRECATED: symmetry with ibrav=0, use correct ibrav instead

     G-vector sticks info
     --------------------
     sticks:   dense  smooth     PW     G-vecs:    dense   smooth      PW
     Sum         859     433    151                64713    22975    4311



     bravais-lattice index     =            0
     lattice parameter (alat)  =       7.2375  a.u.
     unit-cell volume          =    1032.2806 (a.u.)^3
     number of atoms/cell      =            2
     number of atomic types    =            1
     number of electrons       =         8.00
     number of Kohn-Sham states=            8
     kinetic-energy cutoff     =      30.0000  Ry
     charge density cutoff     =     240.0000  Ry
     convergence threshold     =      4.0E-10
     mixing beta               =       0.4000
     number of iterations used =            8  plain     mixing
     Exchange-correlation      = PBE ( 1  4  3  4 0 0)

     celldm(1)=   7.237514  celldm(2)=   0.000000  celldm(3)=   0.000000
     celldm(4)=   0.000000  celldm(5)=   0.000000  celldm(6)=   0.000000

     crystal axes: (cart. coord. in units of alat)
               a(1) = (   0.502620  -0.864507   0.000000 )  
               a(2) = (   0.502620   0.864507   0.000000 )  
               a(3) = (   0.000000   0.000000   3.133218 )  

     reciprocal axes: (cart. coord. in units 2 pi/alat)
               b(1) = (  0.994786 -0.578364  0.000000 )  
               b(2) = (  0.994786  0.578364 -0.000000 )  
               b(3) = ( -0.000000  0.000000  0.319161 )  


     PseudoPot. # 1 for Si read from file:
     /home/meyn/q-e-qe-7.1/pseudo/Si.pbe-n-rrkjus_psl.1.0.0.UPF
     MD5 check sum: 56671f82560c68743c116fe4c72cdc4c
     Pseudo is Ultrasoft + core correction, Zval =  4.0
     Generated using "atomic" code by A. Dal Corso v.5.1.2
     Using radial grid of 1141 points,  6 beta functions with: 
                l(1) =   0
                l(2) =   0
                l(3) =   1
                l(4) =   1
                l(5) =   2
                l(6) =   2
     Q(r) pseudized with 0 coefficients 


     atomic species   valence    mass     pseudopotential
        Si             4.00    28.08550     Si( 1.00)

      4 Sym. Ops. (no inversion) found


                                    s                        frac. trans.

      isym =  1     identity                                     

 cryst.   s( 1) = (     1          0          0      )
                  (     0          1          0      )
                  (     0          0          1      )

 cart.    s( 1) = (  1.0000000  0.0000000  0.0000000 )
                  (  0.0000000  1.0000000  0.0000000 )
                  (  0.0000000  0.0000000  1.0000000 )


      isym =  2     180 deg rotation - cart. axis [0,1,0]        

 cryst.   s( 2) = (     0         -1          0      )
                  (    -1          0          0      )
                  (     0          0         -1      )

 cart.    s( 2) = ( -1.0000000  0.0000000  0.0000000 )
                  (  0.0000000  1.0000000  0.0000000 )
                  (  0.0000000  0.0000000 -1.0000000 )


      isym =  3     inv. 180 deg rotation - cart. axis [0,0,1]   

 cryst.   s( 3) = (     1          0          0      )
                  (     0          1          0      )
                  (     0          0         -1      )

 cart.    s( 3) = (  1.0000000  0.0000000  0.0000000 )
                  (  0.0000000  1.0000000  0.0000000 )
                  (  0.0000000  0.0000000 -1.0000000 )


      isym =  4     inv. 180 deg rotation - cart. axis [1,0,0]   

 cryst.   s( 4) = (     0         -1          0      )
                  (    -1          0          0      )
                  (     0          0          1      )

 cart.    s( 4) = ( -1.0000000  0.0000000  0.0000000 )
                  (  0.0000000  1.0000000  0.0000000 )
                  (  0.0000000  0.0000000  1.0000000 )


   Cartesian axes

     site n.     atom                  positions (alat units)
         1           Si  tau(   1) = (   0.0000000   0.0000000   0.0000000  )
         2           Si  tau(   2) = (   0.5026205   0.2939324   0.0000000  )

   Crystallographic axes

     site n.     atom                  positions (cryst. coord.)
         1           Si  tau(   1) = (  0.0000000  0.0000000  0.0000000  )
         2           Si  tau(   2) = (  0.3300000  0.6700000  0.0000000  )

     number of k points=   216  Marzari-Vanderbilt smearing, width (Ry)=  0.0147
                       cart. coord. in units 2pi/alat
        k(    1) = (   0.0000000   0.0000000   0.0000000), wk =   0.0015026
        k(    2) = (   0.0000000   0.0000000   0.0290146), wk =   0.0030053
        k(    3) = (   0.0000000   0.0000000   0.0580292), wk =   0.0030053
        k(    4) = (   0.0000000   0.0000000   0.0870438), wk =   0.0030053
        k(    5) = (   0.0000000   0.0000000   0.1160584), wk =   0.0030053
        k(    6) = (   0.0000000   0.0000000   0.1450730), wk =   0.0030053
        k(    7) = (   0.0904351   0.0525786   0.0000000), wk =   0.0060105
        k(    8) = (   0.0904351   0.0525786   0.0290146), wk =   0.0120210
        k(    9) = (   0.0904351   0.0525786   0.0580292), wk =   0.0120210
        k(   10) = (   0.0904351   0.0525786   0.0870438), wk =   0.0120210
        k(   11) = (   0.0904351   0.0525786   0.1160584), wk =   0.0120210
        k(   12) = (   0.0904351   0.0525786   0.1450730), wk =   0.0120210
        k(   13) = (   0.1808703   0.1051571   0.0000000), wk =   0.0060105
        k(   14) = (   0.1808703   0.1051571   0.0290146), wk =   0.0120210
        k(   15) = (   0.1808703   0.1051571   0.0580292), wk =   0.0120210
        k(   16) = (   0.1808703   0.1051571   0.0870438), wk =   0.0120210
        k(   17) = (   0.1808703   0.1051571   0.1160584), wk =   0.0120210
        k(   18) = (   0.1808703   0.1051571   0.1450730), wk =   0.0120210
        k(   19) = (   0.2713054   0.1577357   0.0000000), wk =   0.0060105
        k(   20) = (   0.2713054   0.1577357   0.0290146), wk =   0.0120210
        k(   21) = (   0.2713054   0.1577357   0.0580292), wk =   0.0120210
        k(   22) = (   0.2713054   0.1577357   0.0870438), wk =   0.0120210
        k(   23) = (   0.2713054   0.1577357   0.1160584), wk =   0.0120210
        k(   24) = (   0.2713054   0.1577357   0.1450730), wk =   0.0120210
        k(   25) = (   0.3617405   0.2103143   0.0000000), wk =   0.0060105
        k(   26) = (   0.3617405   0.2103143   0.0290146), wk =   0.0120210
        k(   27) = (   0.3617405   0.2103143   0.0580292), wk =   0.0120210
        k(   28) = (   0.3617405   0.2103143   0.0870438), wk =   0.0120210
        k(   29) = (   0.3617405   0.2103143   0.1160584), wk =   0.0120210
        k(   30) = (   0.3617405   0.2103143   0.1450730), wk =   0.0120210
        k(   31) = (   0.4521756   0.2628928   0.0000000), wk =   0.0060105
        k(   32) = (   0.4521756   0.2628928   0.0290146), wk =   0.0120210
        k(   33) = (   0.4521756   0.2628928   0.0580292), wk =   0.0120210
        k(   34) = (   0.4521756   0.2628928   0.0870438), wk =   0.0120210
        k(   35) = (   0.4521756   0.2628928   0.1160584), wk =   0.0120210
        k(   36) = (   0.4521756   0.2628928   0.1450730), wk =   0.0120210
        k(   37) = (   0.1808703   0.0000000   0.0000000), wk =   0.0030053
        k(   38) = (   0.1808703   0.0000000   0.0290146), wk =   0.0060105
        k(   39) = (   0.1808703   0.0000000   0.0580292), wk =   0.0060105
        k(   40) = (   0.1808703   0.0000000   0.0870438), wk =   0.0060105
        k(   41) = (   0.1808703   0.0000000   0.1160584), wk =   0.0060105
        k(   42) = (   0.1808703   0.0000000   0.1450730), wk =   0.0060105
        k(   43) = (   0.2713054   0.0525786   0.0000000), wk =   0.0060105
        k(   44) = (   0.2713054   0.0525786   0.0290146), wk =   0.0120210
        k(   45) = (   0.2713054   0.0525786   0.0580292), wk =   0.0120210
        k(   46) = (   0.2713054   0.0525786   0.0870438), wk =   0.0120210
        k(   47) = (   0.2713054   0.0525786   0.1160584), wk =   0.0120210
        k(   48) = (   0.2713054   0.0525786   0.1450730), wk =   0.0120210
        k(   49) = (   0.3617405   0.1051571   0.0000000), wk =   0.0060105
        k(   50) = (   0.3617405   0.1051571   0.0290146), wk =   0.0120210
        k(   51) = (   0.3617405   0.1051571   0.0580292), wk =   0.0120210
        k(   52) = (   0.3617405   0.1051571   0.0870438), wk =   0.0120210
        k(   53) = (   0.3617405   0.1051571   0.1160584), wk =   0.0120210
        k(   54) = (   0.3617405   0.1051571   0.1450730), wk =   0.0120210
        k(   55) = (   0.4521756   0.1577357   0.0000000), wk =   0.0060105
        k(   56) = (   0.4521756   0.1577357   0.0290146), wk =   0.0120210
        k(   57) = (   0.4521756   0.1577357   0.0580292), wk =   0.0120210
        k(   58) = (   0.4521756   0.1577357   0.0870438), wk =   0.0120210
        k(   59) = (   0.4521756   0.1577357   0.1160584), wk =   0.0120210
        k(   60) = (   0.4521756   0.1577357   0.1450730), wk =   0.0120210
        k(   61) = (   0.5426108   0.2103143   0.0000000), wk =   0.0060105
        k(   62) = (   0.5426108   0.2103143   0.0290146), wk =   0.0120210
        k(   63) = (   0.5426108   0.2103143   0.0580292), wk =   0.0120210
        k(   64) = (   0.5426108   0.2103143   0.0870438), wk =   0.0120210
        k(   65) = (   0.5426108   0.2103143   0.1160584), wk =   0.0120210
        k(   66) = (   0.5426108   0.2103143   0.1450730), wk =   0.0120210
        k(   67) = (  -0.3617405  -0.3154714   0.0000000), wk =   0.0060105
        k(   68) = (  -0.3617405  -0.3154714   0.0290146), wk =   0.0120210
        k(   69) = (  -0.3617405  -0.3154714   0.0580292), wk =   0.0120210
        k(   70) = (  -0.3617405  -0.3154714   0.0870438), wk =   0.0120210
        k(   71) = (  -0.3617405  -0.3154714   0.1160584), wk =   0.0120210
        k(   72) = (  -0.3617405  -0.3154714   0.1450730), wk =   0.0120210
        k(   73) = (  -0.2713054  -0.2628928   0.0000000), wk =   0.0060105
        k(   74) = (  -0.2713054  -0.2628928   0.0290146), wk =   0.0120210
        k(   75) = (  -0.2713054  -0.2628928   0.0580292), wk =   0.0120210
        k(   76) = (  -0.2713054  -0.2628928   0.0870438), wk =   0.0120210
        k(   77) = (  -0.2713054  -0.2628928   0.1160584), wk =   0.0120210
        k(   78) = (  -0.2713054  -0.2628928   0.1450730), wk =   0.0120210
        k(   79) = (  -0.1808703  -0.2103143   0.0000000), wk =   0.0060105
        k(   80) = (  -0.1808703  -0.2103143   0.0290146), wk =   0.0120210
        k(   81) = (  -0.1808703  -0.2103143   0.0580292), wk =   0.0120210
        k(   82) = (  -0.1808703  -0.2103143   0.0870438), wk =   0.0120210
        k(   83) = (  -0.1808703  -0.2103143   0.1160584), wk =   0.0120210
        k(   84) = (  -0.1808703  -0.2103143   0.1450730), wk =   0.0120210
        k(   85) = (  -0.0904351  -0.1577357   0.0000000), wk =   0.0060105
        k(   86) = (  -0.0904351  -0.1577357   0.0290146), wk =   0.0120210
        k(   87) = (  -0.0904351  -0.1577357   0.0580292), wk =   0.0120210
        k(   88) = (  -0.0904351  -0.1577357   0.0870438), wk =   0.0120210
        k(   89) = (  -0.0904351  -0.1577357   0.1160584), wk =   0.0120210
        k(   90) = (  -0.0904351  -0.1577357   0.1450730), wk =   0.0120210
        k(   91) = (  -0.0000000  -0.1051571   0.0000000), wk =   0.0030053
        k(   92) = (  -0.0000000  -0.1051571   0.0290146), wk =   0.0060105
        k(   93) = (  -0.0000000  -0.1051571   0.0580292), wk =   0.0060105
        k(   94) = (  -0.0000000  -0.1051571   0.0870438), wk =   0.0060105
        k(   95) = (  -0.0000000  -0.1051571   0.1160584), wk =   0.0060105
        k(   96) = (  -0.0000000  -0.1051571   0.1450730), wk =   0.0060105
        k(   97) = (   0.3617405   0.0000000   0.0000000), wk =   0.0030053
        k(   98) = (   0.3617405   0.0000000   0.0290146), wk =   0.0060105
        k(   99) = (   0.3617405   0.0000000   0.0580292), wk =   0.0060105
        k(  100) = (   0.3617405   0.0000000   0.0870438), wk =   0.0060105
        k(  101) = (   0.3617405   0.0000000   0.1160584), wk =   0.0060105
        k(  102) = (   0.3617405   0.0000000   0.1450730), wk =   0.0060105
        k(  103) = (   0.4521756   0.0525786   0.0000000), wk =   0.0060105
        k(  104) = (   0.4521756   0.0525786   0.0290146), wk =   0.0120210
        k(  105) = (   0.4521756   0.0525786   0.0580292), wk =   0.0120210
        k(  106) = (   0.4521756   0.0525786   0.0870438), wk =   0.0120210
        k(  107) = (   0.4521756   0.0525786   0.1160584), wk =   0.0120210
        k(  108) = (   0.4521756   0.0525786   0.1450730), wk =   0.0120210
        k(  109) = (   0.5426108   0.1051571   0.0000000), wk =   0.0060105
        k(  110) = (   0.5426108   0.1051571   0.0290146), wk =   0.0120210
        k(  111) = (   0.5426108   0.1051571   0.0580292), wk =   0.0120210
        k(  112) = (   0.5426108   0.1051571   0.0870438), wk =   0.0120210
        k(  113) = (   0.5426108   0.1051571   0.1160584), wk =   0.0120210
        k(  114) = (   0.5426108   0.1051571   0.1450730), wk =   0.0120210
        k(  115) = (   0.6330459   0.1577357   0.0000000), wk =   0.0060105
        k(  116) = (   0.6330459   0.1577357   0.0290146), wk =   0.0120210
        k(  117) = (   0.6330459   0.1577357   0.0580292), wk =   0.0120210
        k(  118) = (   0.6330459   0.1577357   0.0870438), wk =   0.0120210
        k(  119) = (   0.6330459   0.1577357   0.1160584), wk =   0.0120210
        k(  120) = (   0.6330459   0.1577357   0.1450730), wk =   0.0120210
        k(  121) = (  -0.2713054  -0.3680499   0.0000000), wk =   0.0060105
        k(  122) = (  -0.2713054  -0.3680499   0.0290146), wk =   0.0120210
        k(  123) = (  -0.2713054  -0.3680499   0.0580292), wk =   0.0120210
        k(  124) = (  -0.2713054  -0.3680499   0.0870438), wk =   0.0120210
        k(  125) = (  -0.2713054  -0.3680499   0.1160584), wk =   0.0120210
        k(  126) = (  -0.2713054  -0.3680499   0.1450730), wk =   0.0120210
        k(  127) = (  -0.1808703  -0.3154714   0.0000000), wk =   0.0060105
        k(  128) = (  -0.1808703  -0.3154714   0.0290146), wk =   0.0120210
        k(  129) = (  -0.1808703  -0.3154714   0.0580292), wk =   0.0120210
        k(  130) = (  -0.1808703  -0.3154714   0.0870438), wk =   0.0120210
        k(  131) = (  -0.1808703  -0.3154714   0.1160584), wk =   0.0120210
        k(  132) = (  -0.1808703  -0.3154714   0.1450730), wk =   0.0120210
        k(  133) = (  -0.0904351  -0.2628928   0.0000000), wk =   0.0060105
        k(  134) = (  -0.0904351  -0.2628928   0.0290146), wk =   0.0120210
        k(  135) = (  -0.0904351  -0.2628928   0.0580292), wk =   0.0120210
        k(  136) = (  -0.0904351  -0.2628928   0.0870438), wk =   0.0120210
        k(  137) = (  -0.0904351  -0.2628928   0.1160584), wk =   0.0120210
        k(  138) = (  -0.0904351  -0.2628928   0.1450730), wk =   0.0120210
        k(  139) = (   0.0000000  -0.2103143   0.0000000), wk =   0.0030053
        k(  140) = (   0.0000000  -0.2103143   0.0290146), wk =   0.0060105
        k(  141) = (   0.0000000  -0.2103143   0.0580292), wk =   0.0060105
        k(  142) = (   0.0000000  -0.2103143   0.0870438), wk =   0.0060105
        k(  143) = (   0.0000000  -0.2103143   0.1160584), wk =   0.0060105
        k(  144) = (   0.0000000  -0.2103143   0.1450730), wk =   0.0060105
        k(  145) = (   0.5426108   0.0000000   0.0000000), wk =   0.0030053
        k(  146) = (   0.5426108   0.0000000   0.0290146), wk =   0.0060105
        k(  147) = (   0.5426108   0.0000000   0.0580292), wk =   0.0060105
        k(  148) = (   0.5426108   0.0000000   0.0870438), wk =   0.0060105
        k(  149) = (   0.5426108   0.0000000   0.1160584), wk =   0.0060105
        k(  150) = (   0.5426108   0.0000000   0.1450730), wk =   0.0060105
        k(  151) = (   0.6330459   0.0525786   0.0000000), wk =   0.0060105
        k(  152) = (   0.6330459   0.0525786   0.0290146), wk =   0.0120210
        k(  153) = (   0.6330459   0.0525786   0.0580292), wk =   0.0120210
        k(  154) = (   0.6330459   0.0525786   0.0870438), wk =   0.0120210
        k(  155) = (   0.6330459   0.0525786   0.1160584), wk =   0.0120210
        k(  156) = (   0.6330459   0.0525786   0.1450730), wk =   0.0120210
        k(  157) = (   0.7234810   0.1051571   0.0000000), wk =   0.0060105
        k(  158) = (   0.7234810   0.1051571   0.0290146), wk =   0.0120210
        k(  159) = (   0.7234810   0.1051571   0.0580292), wk =   0.0120210
        k(  160) = (   0.7234810   0.1051571   0.0870438), wk =   0.0120210
        k(  161) = (   0.7234810   0.1051571   0.1160584), wk =   0.0120210
        k(  162) = (   0.7234810   0.1051571   0.1450730), wk =   0.0120210
        k(  163) = (  -0.1808703  -0.4206285   0.0000000), wk =   0.0060105
        k(  164) = (  -0.1808703  -0.4206285   0.0290146), wk =   0.0120210
        k(  165) = (  -0.1808703  -0.4206285   0.0580292), wk =   0.0120210
        k(  166) = (  -0.1808703  -0.4206285   0.0870438), wk =   0.0120210
        k(  167) = (  -0.1808703  -0.4206285   0.1160584), wk =   0.0120210
        k(  168) = (  -0.1808703  -0.4206285   0.1450730), wk =   0.0120210
        k(  169) = (  -0.0904351  -0.3680499   0.0000000), wk =   0.0060105
        k(  170) = (  -0.0904351  -0.3680499   0.0290146), wk =   0.0120210
        k(  171) = (  -0.0904351  -0.3680499   0.0580292), wk =   0.0120210
        k(  172) = (  -0.0904351  -0.3680499   0.0870438), wk =   0.0120210
        k(  173) = (  -0.0904351  -0.3680499   0.1160584), wk =   0.0120210
        k(  174) = (  -0.0904351  -0.3680499   0.1450730), wk =   0.0120210
        k(  175) = (   0.0000000  -0.3154714   0.0000000), wk =   0.0030053
        k(  176) = (   0.0000000  -0.3154714   0.0290146), wk =   0.0060105
        k(  177) = (   0.0000000  -0.3154714   0.0580292), wk =   0.0060105
        k(  178) = (   0.0000000  -0.3154714   0.0870438), wk =   0.0060105
        k(  179) = (   0.0000000  -0.3154714   0.1160584), wk =   0.0060105
        k(  180) = (   0.0000000  -0.3154714   0.1450730), wk =   0.0060105
        k(  181) = (   0.7234810   0.0000000   0.0000000), wk =   0.0030053
        k(  182) = (   0.7234810   0.0000000   0.0290146), wk =   0.0060105
        k(  183) = (   0.7234810   0.0000000   0.0580292), wk =   0.0060105
        k(  184) = (   0.7234810   0.0000000   0.0870438), wk =   0.0060105
        k(  185) = (   0.7234810   0.0000000   0.1160584), wk =   0.0060105
        k(  186) = (   0.7234810   0.0000000   0.1450730), wk =   0.0060105
        k(  187) = (   0.8139162   0.0525786   0.0000000), wk =   0.0060105
        k(  188) = (   0.8139162   0.0525786   0.0290146), wk =   0.0120210
        k(  189) = (   0.8139162   0.0525786   0.0580292), wk =   0.0120210
        k(  190) = (   0.8139162   0.0525786   0.0870438), wk =   0.0120210
        k(  191) = (   0.8139162   0.0525786   0.1160584), wk =   0.0120210
        k(  192) = (   0.8139162   0.0525786   0.1450730), wk =   0.0120210
        k(  193) = (  -0.0904351  -0.4732071   0.0000000), wk =   0.0060105
        k(  194) = (  -0.0904351  -0.4732071   0.0290146), wk =   0.0120210
        k(  195) = (  -0.0904351  -0.4732071   0.0580292), wk =   0.0120210
        k(  196) = (  -0.0904351  -0.4732071   0.0870438), wk =   0.0120210
        k(  197) = (  -0.0904351  -0.4732071   0.1160584), wk =   0.0120210
        k(  198) = (  -0.0904351  -0.4732071   0.1450730), wk =   0.0120210
        k(  199) = (   0.0000000  -0.4206285   0.0000000), wk =   0.0030053
        k(  200) = (   0.0000000  -0.4206285   0.0290146), wk =   0.0060105
        k(  201) = (   0.0000000  -0.4206285   0.0580292), wk =   0.0060105
        k(  202) = (   0.0000000  -0.4206285   0.0870438), wk =   0.0060105
        k(  203) = (   0.0000000  -0.4206285   0.1160584), wk =   0.0060105
        k(  204) = (   0.0000000  -0.4206285   0.1450730), wk =   0.0060105
        k(  205) = (   0.9043513   0.0000000   0.0000000), wk =   0.0030053
        k(  206) = (   0.9043513   0.0000000   0.0290146), wk =   0.0060105
        k(  207) = (   0.9043513   0.0000000   0.0580292), wk =   0.0060105
        k(  208) = (   0.9043513   0.0000000   0.0870438), wk =   0.0060105
        k(  209) = (   0.9043513   0.0000000   0.1160584), wk =   0.0060105
        k(  210) = (   0.9043513   0.0000000   0.1450730), wk =   0.0060105
        k(  211) = (  -0.0000000  -0.5257856   0.0000000), wk =   0.0030053
        k(  212) = (  -0.0000000  -0.5257856   0.0290146), wk =   0.0060105
        k(  213) = (  -0.0000000  -0.5257856   0.0580292), wk =   0.0060105
        k(  214) = (  -0.0000000  -0.5257856   0.0870438), wk =   0.0060105
        k(  215) = (  -0.0000000  -0.5257856   0.1160584), wk =   0.0060105
        k(  216) = (  -0.0000000  -0.5257856   0.1450730), wk =   0.0060105

                       cryst. coord.
        k(    1) = (   0.0000000   0.0000000   0.0000000), wk =   0.0015026
        k(    2) = (   0.0000000   0.0000000   0.0909091), wk =   0.0030053
        k(    3) = (   0.0000000   0.0000000   0.1818182), wk =   0.0030053
        k(    4) = (   0.0000000   0.0000000   0.2727273), wk =   0.0030053
        k(    5) = (   0.0000000   0.0000000   0.3636364), wk =   0.0030053
        k(    6) = (   0.0000000   0.0000000   0.4545455), wk =   0.0030053
        k(    7) = (   0.0000000   0.0909091   0.0000000), wk =   0.0060105
        k(    8) = (   0.0000000   0.0909091   0.0909091), wk =   0.0120210
        k(    9) = (   0.0000000   0.0909091   0.1818182), wk =   0.0120210
        k(   10) = (   0.0000000   0.0909091   0.2727273), wk =   0.0120210
        k(   11) = (   0.0000000   0.0909091   0.3636364), wk =   0.0120210
        k(   12) = (   0.0000000   0.0909091   0.4545455), wk =   0.0120210
        k(   13) = (   0.0000000   0.1818182   0.0000000), wk =   0.0060105
        k(   14) = (   0.0000000   0.1818182   0.0909091), wk =   0.0120210
        k(   15) = (   0.0000000   0.1818182   0.1818182), wk =   0.0120210
        k(   16) = (   0.0000000   0.1818182   0.2727273), wk =   0.0120210
        k(   17) = (   0.0000000   0.1818182   0.3636364), wk =   0.0120210
        k(   18) = (   0.0000000   0.1818182   0.4545455), wk =   0.0120210
        k(   19) = (   0.0000000   0.2727273   0.0000000), wk =   0.0060105
        k(   20) = (   0.0000000   0.2727273   0.0909091), wk =   0.0120210
        k(   21) = (   0.0000000   0.2727273   0.1818182), wk =   0.0120210
        k(   22) = (   0.0000000   0.2727273   0.2727273), wk =   0.0120210
        k(   23) = (   0.0000000   0.2727273   0.3636364), wk =   0.0120210
        k(   24) = (   0.0000000   0.2727273   0.4545455), wk =   0.0120210
        k(   25) = (   0.0000000   0.3636364   0.0000000), wk =   0.0060105
        k(   26) = (   0.0000000   0.3636364   0.0909091), wk =   0.0120210
        k(   27) = (   0.0000000   0.3636364   0.1818182), wk =   0.0120210
        k(   28) = (   0.0000000   0.3636364   0.2727273), wk =   0.0120210
        k(   29) = (   0.0000000   0.3636364   0.3636364), wk =   0.0120210
        k(   30) = (   0.0000000   0.3636364   0.4545455), wk =   0.0120210
        k(   31) = (   0.0000000   0.4545455   0.0000000), wk =   0.0060105
        k(   32) = (   0.0000000   0.4545455   0.0909091), wk =   0.0120210
        k(   33) = (   0.0000000   0.4545455   0.1818182), wk =   0.0120210
        k(   34) = (   0.0000000   0.4545455   0.2727273), wk =   0.0120210
        k(   35) = (   0.0000000   0.4545455   0.3636364), wk =   0.0120210
        k(   36) = (   0.0000000   0.4545455   0.4545455), wk =   0.0120210
        k(   37) = (   0.0909091   0.0909091   0.0000000), wk =   0.0030053
        k(   38) = (   0.0909091   0.0909091   0.0909091), wk =   0.0060105
        k(   39) = (   0.0909091   0.0909091   0.1818182), wk =   0.0060105
        k(   40) = (   0.0909091   0.0909091   0.2727273), wk =   0.0060105
        k(   41) = (   0.0909091   0.0909091   0.3636364), wk =   0.0060105
        k(   42) = (   0.0909091   0.0909091   0.4545455), wk =   0.0060105
        k(   43) = (   0.0909091   0.1818182   0.0000000), wk =   0.0060105
        k(   44) = (   0.0909091   0.1818182   0.0909091), wk =   0.0120210
        k(   45) = (   0.0909091   0.1818182   0.1818182), wk =   0.0120210
        k(   46) = (   0.0909091   0.1818182   0.2727273), wk =   0.0120210
        k(   47) = (   0.0909091   0.1818182   0.3636364), wk =   0.0120210
        k(   48) = (   0.0909091   0.1818182   0.4545455), wk =   0.0120210
        k(   49) = (   0.0909091   0.2727273   0.0000000), wk =   0.0060105
        k(   50) = (   0.0909091   0.2727273   0.0909091), wk =   0.0120210
        k(   51) = (   0.0909091   0.2727273   0.1818182), wk =   0.0120210
        k(   52) = (   0.0909091   0.2727273   0.2727273), wk =   0.0120210
        k(   53) = (   0.0909091   0.2727273   0.3636364), wk =   0.0120210
        k(   54) = (   0.0909091   0.2727273   0.4545455), wk =   0.0120210
        k(   55) = (   0.0909091   0.3636364   0.0000000), wk =   0.0060105
        k(   56) = (   0.0909091   0.3636364   0.0909091), wk =   0.0120210
        k(   57) = (   0.0909091   0.3636364   0.1818182), wk =   0.0120210
        k(   58) = (   0.0909091   0.3636364   0.2727273), wk =   0.0120210
        k(   59) = (   0.0909091   0.3636364   0.3636364), wk =   0.0120210
        k(   60) = (   0.0909091   0.3636364   0.4545455), wk =   0.0120210
        k(   61) = (   0.0909091   0.4545455   0.0000000), wk =   0.0060105
        k(   62) = (   0.0909091   0.4545455   0.0909091), wk =   0.0120210
        k(   63) = (   0.0909091   0.4545455   0.1818182), wk =   0.0120210
        k(   64) = (   0.0909091   0.4545455   0.2727273), wk =   0.0120210
        k(   65) = (   0.0909091   0.4545455   0.3636364), wk =   0.0120210
        k(   66) = (   0.0909091   0.4545455   0.4545455), wk =   0.0120210
        k(   67) = (   0.0909091  -0.4545455   0.0000000), wk =   0.0060105
        k(   68) = (   0.0909091  -0.4545455   0.0909091), wk =   0.0120210
        k(   69) = (   0.0909091  -0.4545455   0.1818182), wk =   0.0120210
        k(   70) = (   0.0909091  -0.4545455   0.2727273), wk =   0.0120210
        k(   71) = (   0.0909091  -0.4545455   0.3636364), wk =   0.0120210
        k(   72) = (   0.0909091  -0.4545455   0.4545455), wk =   0.0120210
        k(   73) = (   0.0909091  -0.3636364   0.0000000), wk =   0.0060105
        k(   74) = (   0.0909091  -0.3636364   0.0909091), wk =   0.0120210
        k(   75) = (   0.0909091  -0.3636364   0.1818182), wk =   0.0120210
        k(   76) = (   0.0909091  -0.3636364   0.2727273), wk =   0.0120210
        k(   77) = (   0.0909091  -0.3636364   0.3636364), wk =   0.0120210
        k(   78) = (   0.0909091  -0.3636364   0.4545455), wk =   0.0120210
        k(   79) = (   0.0909091  -0.2727273   0.0000000), wk =   0.0060105
        k(   80) = (   0.0909091  -0.2727273   0.0909091), wk =   0.0120210
        k(   81) = (   0.0909091  -0.2727273   0.1818182), wk =   0.0120210
        k(   82) = (   0.0909091  -0.2727273   0.2727273), wk =   0.0120210
        k(   83) = (   0.0909091  -0.2727273   0.3636364), wk =   0.0120210
        k(   84) = (   0.0909091  -0.2727273   0.4545455), wk =   0.0120210
        k(   85) = (   0.0909091  -0.1818182   0.0000000), wk =   0.0060105
        k(   86) = (   0.0909091  -0.1818182   0.0909091), wk =   0.0120210
        k(   87) = (   0.0909091  -0.1818182   0.1818182), wk =   0.0120210
        k(   88) = (   0.0909091  -0.1818182   0.2727273), wk =   0.0120210
        k(   89) = (   0.0909091  -0.1818182   0.3636364), wk =   0.0120210
        k(   90) = (   0.0909091  -0.1818182   0.4545455), wk =   0.0120210
        k(   91) = (   0.0909091  -0.0909091   0.0000000), wk =   0.0030053
        k(   92) = (   0.0909091  -0.0909091   0.0909091), wk =   0.0060105
        k(   93) = (   0.0909091  -0.0909091   0.1818182), wk =   0.0060105
        k(   94) = (   0.0909091  -0.0909091   0.2727273), wk =   0.0060105
        k(   95) = (   0.0909091  -0.0909091   0.3636364), wk =   0.0060105
        k(   96) = (   0.0909091  -0.0909091   0.4545455), wk =   0.0060105
        k(   97) = (   0.1818182   0.1818182   0.0000000), wk =   0.0030053
        k(   98) = (   0.1818182   0.1818182   0.0909091), wk =   0.0060105
        k(   99) = (   0.1818182   0.1818182   0.1818182), wk =   0.0060105
        k(  100) = (   0.1818182   0.1818182   0.2727273), wk =   0.0060105
        k(  101) = (   0.1818182   0.1818182   0.3636364), wk =   0.0060105
        k(  102) = (   0.1818182   0.1818182   0.4545455), wk =   0.0060105
        k(  103) = (   0.1818182   0.2727273   0.0000000), wk =   0.0060105
        k(  104) = (   0.1818182   0.2727273   0.0909091), wk =   0.0120210
        k(  105) = (   0.1818182   0.2727273   0.1818182), wk =   0.0120210
        k(  106) = (   0.1818182   0.2727273   0.2727273), wk =   0.0120210
        k(  107) = (   0.1818182   0.2727273   0.3636364), wk =   0.0120210
        k(  108) = (   0.1818182   0.2727273   0.4545455), wk =   0.0120210
        k(  109) = (   0.1818182   0.3636364   0.0000000), wk =   0.0060105
        k(  110) = (   0.1818182   0.3636364   0.0909091), wk =   0.0120210
        k(  111) = (   0.1818182   0.3636364   0.1818182), wk =   0.0120210
        k(  112) = (   0.1818182   0.3636364   0.2727273), wk =   0.0120210
        k(  113) = (   0.1818182   0.3636364   0.3636364), wk =   0.0120210
        k(  114) = (   0.1818182   0.3636364   0.4545455), wk =   0.0120210
        k(  115) = (   0.1818182   0.4545455   0.0000000), wk =   0.0060105
        k(  116) = (   0.1818182   0.4545455   0.0909091), wk =   0.0120210
        k(  117) = (   0.1818182   0.4545455   0.1818182), wk =   0.0120210
        k(  118) = (   0.1818182   0.4545455   0.2727273), wk =   0.0120210
        k(  119) = (   0.1818182   0.4545455   0.3636364), wk =   0.0120210
        k(  120) = (   0.1818182   0.4545455   0.4545455), wk =   0.0120210
        k(  121) = (   0.1818182  -0.4545455   0.0000000), wk =   0.0060105
        k(  122) = (   0.1818182  -0.4545455   0.0909091), wk =   0.0120210
        k(  123) = (   0.1818182  -0.4545455   0.1818182), wk =   0.0120210
        k(  124) = (   0.1818182  -0.4545455   0.2727273), wk =   0.0120210
        k(  125) = (   0.1818182  -0.4545455   0.3636364), wk =   0.0120210
        k(  126) = (   0.1818182  -0.4545455   0.4545455), wk =   0.0120210
        k(  127) = (   0.1818182  -0.3636364   0.0000000), wk =   0.0060105
        k(  128) = (   0.1818182  -0.3636364   0.0909091), wk =   0.0120210
        k(  129) = (   0.1818182  -0.3636364   0.1818182), wk =   0.0120210
        k(  130) = (   0.1818182  -0.3636364   0.2727273), wk =   0.0120210
        k(  131) = (   0.1818182  -0.3636364   0.3636364), wk =   0.0120210
        k(  132) = (   0.1818182  -0.3636364   0.4545455), wk =   0.0120210
        k(  133) = (   0.1818182  -0.2727273   0.0000000), wk =   0.0060105
        k(  134) = (   0.1818182  -0.2727273   0.0909091), wk =   0.0120210
        k(  135) = (   0.1818182  -0.2727273   0.1818182), wk =   0.0120210
        k(  136) = (   0.1818182  -0.2727273   0.2727273), wk =   0.0120210
        k(  137) = (   0.1818182  -0.2727273   0.3636364), wk =   0.0120210
        k(  138) = (   0.1818182  -0.2727273   0.4545455), wk =   0.0120210
        k(  139) = (   0.1818182  -0.1818182   0.0000000), wk =   0.0030053
        k(  140) = (   0.1818182  -0.1818182   0.0909091), wk =   0.0060105
        k(  141) = (   0.1818182  -0.1818182   0.1818182), wk =   0.0060105
        k(  142) = (   0.1818182  -0.1818182   0.2727273), wk =   0.0060105
        k(  143) = (   0.1818182  -0.1818182   0.3636364), wk =   0.0060105
        k(  144) = (   0.1818182  -0.1818182   0.4545455), wk =   0.0060105
        k(  145) = (   0.2727273   0.2727273   0.0000000), wk =   0.0030053
        k(  146) = (   0.2727273   0.2727273   0.0909091), wk =   0.0060105
        k(  147) = (   0.2727273   0.2727273   0.1818182), wk =   0.0060105
        k(  148) = (   0.2727273   0.2727273   0.2727273), wk =   0.0060105
        k(  149) = (   0.2727273   0.2727273   0.3636364), wk =   0.0060105
        k(  150) = (   0.2727273   0.2727273   0.4545455), wk =   0.0060105
        k(  151) = (   0.2727273   0.3636364   0.0000000), wk =   0.0060105
        k(  152) = (   0.2727273   0.3636364   0.0909091), wk =   0.0120210
        k(  153) = (   0.2727273   0.3636364   0.1818182), wk =   0.0120210
        k(  154) = (   0.2727273   0.3636364   0.2727273), wk =   0.0120210
        k(  155) = (   0.2727273   0.3636364   0.3636364), wk =   0.0120210
        k(  156) = (   0.2727273   0.3636364   0.4545455), wk =   0.0120210
        k(  157) = (   0.2727273   0.4545455   0.0000000), wk =   0.0060105
        k(  158) = (   0.2727273   0.4545455   0.0909091), wk =   0.0120210
        k(  159) = (   0.2727273   0.4545455   0.1818182), wk =   0.0120210
        k(  160) = (   0.2727273   0.4545455   0.2727273), wk =   0.0120210
        k(  161) = (   0.2727273   0.4545455   0.3636364), wk =   0.0120210
        k(  162) = (   0.2727273   0.4545455   0.4545455), wk =   0.0120210
        k(  163) = (   0.2727273  -0.4545455   0.0000000), wk =   0.0060105
        k(  164) = (   0.2727273  -0.4545455   0.0909091), wk =   0.0120210
        k(  165) = (   0.2727273  -0.4545455   0.1818182), wk =   0.0120210
        k(  166) = (   0.2727273  -0.4545455   0.2727273), wk =   0.0120210
        k(  167) = (   0.2727273  -0.4545455   0.3636364), wk =   0.0120210
        k(  168) = (   0.2727273  -0.4545455   0.4545455), wk =   0.0120210
        k(  169) = (   0.2727273  -0.3636364   0.0000000), wk =   0.0060105
        k(  170) = (   0.2727273  -0.3636364   0.0909091), wk =   0.0120210
        k(  171) = (   0.2727273  -0.3636364   0.1818182), wk =   0.0120210
        k(  172) = (   0.2727273  -0.3636364   0.2727273), wk =   0.0120210
        k(  173) = (   0.2727273  -0.3636364   0.3636364), wk =   0.0120210
        k(  174) = (   0.2727273  -0.3636364   0.4545455), wk =   0.0120210
        k(  175) = (   0.2727273  -0.2727273   0.0000000), wk =   0.0030053
        k(  176) = (   0.2727273  -0.2727273   0.0909091), wk =   0.0060105
        k(  177) = (   0.2727273  -0.2727273   0.1818182), wk =   0.0060105
        k(  178) = (   0.2727273  -0.2727273   0.2727273), wk =   0.0060105
        k(  179) = (   0.2727273  -0.2727273   0.3636364), wk =   0.0060105
        k(  180) = (   0.2727273  -0.2727273   0.4545455), wk =   0.0060105
        k(  181) = (   0.3636364   0.3636364   0.0000000), wk =   0.0030053
        k(  182) = (   0.3636364   0.3636364   0.0909091), wk =   0.0060105
        k(  183) = (   0.3636364   0.3636364   0.1818182), wk =   0.0060105
        k(  184) = (   0.3636364   0.3636364   0.2727273), wk =   0.0060105
        k(  185) = (   0.3636364   0.3636364   0.3636364), wk =   0.0060105
        k(  186) = (   0.3636364   0.3636364   0.4545455), wk =   0.0060105
        k(  187) = (   0.3636364   0.4545455   0.0000000), wk =   0.0060105
        k(  188) = (   0.3636364   0.4545455   0.0909091), wk =   0.0120210
        k(  189) = (   0.3636364   0.4545455   0.1818182), wk =   0.0120210
        k(  190) = (   0.3636364   0.4545455   0.2727273), wk =   0.0120210
        k(  191) = (   0.3636364   0.4545455   0.3636364), wk =   0.0120210
        k(  192) = (   0.3636364   0.4545455   0.4545455), wk =   0.0120210
        k(  193) = (   0.3636364  -0.4545455   0.0000000), wk =   0.0060105
        k(  194) = (   0.3636364  -0.4545455   0.0909091), wk =   0.0120210
        k(  195) = (   0.3636364  -0.4545455   0.1818182), wk =   0.0120210
        k(  196) = (   0.3636364  -0.4545455   0.2727273), wk =   0.0120210
        k(  197) = (   0.3636364  -0.4545455   0.3636364), wk =   0.0120210
        k(  198) = (   0.3636364  -0.4545455   0.4545455), wk =   0.0120210
        k(  199) = (   0.3636364  -0.3636364   0.0000000), wk =   0.0030053
        k(  200) = (   0.3636364  -0.3636364   0.0909091), wk =   0.0060105
        k(  201) = (   0.3636364  -0.3636364   0.1818182), wk =   0.0060105
        k(  202) = (   0.3636364  -0.3636364   0.2727273), wk =   0.0060105
        k(  203) = (   0.3636364  -0.3636364   0.3636364), wk =   0.0060105
        k(  204) = (   0.3636364  -0.3636364   0.4545455), wk =   0.0060105
        k(  205) = (   0.4545455   0.4545455   0.0000000), wk =   0.0030053
        k(  206) = (   0.4545455   0.4545455   0.0909091), wk =   0.0060105
        k(  207) = (   0.4545455   0.4545455   0.1818182), wk =   0.0060105
        k(  208) = (   0.4545455   0.4545455   0.2727273), wk =   0.0060105
        k(  209) = (   0.4545455   0.4545455   0.3636364), wk =   0.0060105
        k(  210) = (   0.4545455   0.4545455   0.4545455), wk =   0.0060105
        k(  211) = (   0.4545455  -0.4545455   0.0000000), wk =   0.0030053
        k(  212) = (   0.4545455  -0.4545455   0.0909091), wk =   0.0060105
        k(  213) = (   0.4545455  -0.4545455   0.1818182), wk =   0.0060105
        k(  214) = (   0.4545455  -0.4545455   0.2727273), wk =   0.0060105
        k(  215) = (   0.4545455  -0.4545455   0.3636364), wk =   0.0060105
        k(  216) = (   0.4545455  -0.4545455   0.4545455), wk =   0.0060105

     Dense  grid:    64713 G-vectors     FFT dimensions: (  36,  36, 120)

     Smooth grid:    22975 G-vectors     FFT dimensions: (  25,  25,  80)

     Dynamical RAM for                 wfc:       0.35 MB

     Dynamical RAM for     wfc (w. buffer):      75.87 MB

     Dynamical RAM for           str. fact:       0.99 MB

     Dynamical RAM for           local pot:       0.00 MB

     Dynamical RAM for          nlocal pot:       1.57 MB

     Dynamical RAM for                qrad:       1.43 MB

     Dynamical RAM for          rho,v,vnew:       6.52 MB

     Dynamical RAM for               rhoin:       2.17 MB

     Dynamical RAM for            rho*nmix:      15.80 MB

     Dynamical RAM for           G-vectors:       3.88 MB

     Dynamical RAM for          h,s,v(r/c):       0.05 MB

     Dynamical RAM for          <psi|beta>:       0.00 MB

     Dynamical RAM for                 psi:       1.40 MB

     Dynamical RAM for                hpsi:       1.40 MB

     Dynamical RAM for                spsi:       1.40 MB

     Dynamical RAM for      wfcinit/wfcrot:       0.70 MB

     Dynamical RAM for           addusdens:     185.64 MB

     Dynamical RAM for          addusforce:     188.12 MB

     Dynamical RAM for         addusstress:     198.48 MB

     Estimated static dynamical RAM per process >     116.14 MB

     Estimated max dynamical RAM per process >     314.61 MB

     Initial potential from superposition of free atoms

     starting charge    7.99888, renormalised to    8.00000

     negative rho (up, down):  3.014E-06 0.000E+00
     Starting wfcs are    8 randomized atomic wfcs

     total cpu time spent up to now is        4.6 secs

     Self-consistent Calculation

     iteration #  1     ecut=    30.00 Ry     beta= 0.40
     Davidson diagonalization with overlap
     ethr =  1.00E-02,  avg # of iterations =  4.6

     Threshold (ethr) on eigenvalues was too large:
     Diagonalizing with lowered threshold

     Davidson diagonalization with overlap
     ethr =  9.17E-04,  avg # of iterations =  1.3

     negative rho (up, down):  1.253E-06 0.000E+00

     total cpu time spent up to now is       25.4 secs

     total energy              =     -22.74143262 Ry
     Harris-Foulkes estimate   =     -22.76130367 Ry
     estimated scf accuracy    <       0.07238033 Ry

     iteration #  2     ecut=    30.00 Ry     beta= 0.40
     Davidson diagonalization with overlap
     ethr =  9.05E-04,  avg # of iterations =  1.2

     negative rho (up, down):  2.841E-06 0.000E+00

     total cpu time spent up to now is       33.3 secs

     total energy              =     -22.73806006 Ry
     Harris-Foulkes estimate   =     -22.74375243 Ry
     estimated scf accuracy    <       0.01719515 Ry

     iteration #  3     ecut=    30.00 Ry     beta= 0.40
     Davidson diagonalization with overlap
     ethr =  2.15E-04,  avg # of iterations =  3.7

     negative rho (up, down):  1.631E-06 0.000E+00

     total cpu time spent up to now is       42.4 secs

     total energy              =     -22.73987923 Ry
     Harris-Foulkes estimate   =     -22.74007092 Ry
     estimated scf accuracy    <       0.00062061 Ry

     iteration #  4     ecut=    30.00 Ry     beta= 0.40
     Davidson diagonalization with overlap
     ethr =  7.76E-06,  avg # of iterations =  5.3

     negative rho (up, down):  1.088E-06 0.000E+00

     total cpu time spent up to now is       54.8 secs

     total energy              =     -22.73996722 Ry
     Harris-Foulkes estimate   =     -22.74006200 Ry
     estimated scf accuracy    <       0.00015424 Ry

     iteration #  5     ecut=    30.00 Ry     beta= 0.40
     Davidson diagonalization with overlap
     ethr =  1.93E-06,  avg # of iterations =  2.8

     negative rho (up, down):  8.036E-07 0.000E+00

     total cpu time spent up to now is       66.9 secs

     total energy              =     -22.73999781 Ry
     Harris-Foulkes estimate   =     -22.73999885 Ry
     estimated scf accuracy    <       0.00000300 Ry

     iteration #  6     ecut=    30.00 Ry     beta= 0.40
     Davidson diagonalization with overlap
     ethr =  3.75E-08,  avg # of iterations =  2.2

     negative rho (up, down):  7.181E-07 0.000E+00

     total cpu time spent up to now is       76.2 secs

     total energy              =     -22.73999851 Ry
     Harris-Foulkes estimate   =     -22.73999845 Ry
     estimated scf accuracy    <       0.00000008 Ry

     iteration #  7     ecut=    30.00 Ry     beta= 0.40
     Davidson diagonalization with overlap
     ethr =  9.85E-10,  avg # of iterations =  2.0

     negative rho (up, down):  6.910E-07 0.000E+00

     total cpu time spent up to now is       84.9 secs

     total energy              =     -22.73999850 Ry
     Harris-Foulkes estimate   =     -22.73999853 Ry
     estimated scf accuracy    <       0.00000006 Ry

     iteration #  8     ecut=    30.00 Ry     beta= 0.40
     Davidson diagonalization with overlap
     ethr =  7.02E-10,  avg # of iterations =  1.7

     negative rho (up, down):  6.864E-07 0.000E+00

     total cpu time spent up to now is       93.0 secs

     total energy              =     -22.73999851 Ry
     Harris-Foulkes estimate   =     -22.73999851 Ry
     estimated scf accuracy    <          3.9E-09 Ry

     iteration #  9     ecut=    30.00 Ry     beta= 0.40
     Davidson diagonalization with overlap
     ethr =  4.84E-11,  avg # of iterations =  2.2

     negative rho (up, down):  6.943E-07 0.000E+00

     total cpu time spent up to now is      101.9 secs

     End of self-consistent calculation

          k = 0.0000 0.0000 0.0000 (  2867 PWs)   bands (ev):

   -13.2225  -4.8634  -3.4918  -3.3432   0.1596   0.8464   1.1131   1.3574

     occupation numbers 
     1.0000   1.0000   1.0000   1.0000   0.0000   0.0000   0.0000   0.0000

          k = 0.0000 0.0000 0.0290 (  2863 PWs)   bands (ev):

   -13.2225  -4.8634  -3.4918  -3.3432   0.1596   0.8464   1.1131   1.3642

     occupation numbers 
     1.0000   1.0000   1.0000   1.0000   0.0000   0.0000   0.0000   0.0000

          k = 0.0000 0.0000 0.0580 (  2885 PWs)   bands (ev):

   -13.2225  -4.8634  -3.4918  -3.3432   0.1596   0.8464   1.1131   1.3834

     occupation numbers 
     1.0000   1.0000   1.0000   1.0000   0.0000   0.0000   0.0000   0.0000

          k = 0.0000 0.0000 0.0870 (  2892 PWs)   bands (ev):

   -13.2225  -4.8634  -3.4918  -3.3432   0.1596   0.8464   1.1131   1.4107

     occupation numbers 
     1.0000   1.0000   1.0000   1.0000   0.0000   0.0000   0.0000   0.0000

          k = 0.0000 0.0000 0.1161 (  2874 PWs)   bands (ev):

   -13.2225  -4.8635  -3.4918  -3.3432   0.1596   0.8464   1.1131   1.4385

     occupation numbers 
     1.0000   1.0000   1.0000   1.0000   0.0000   0.0000   0.0000   0.0000

          k = 0.0000 0.0000 0.1451 (  2862 PWs)   bands (ev):

   -13.2225  -4.8635  -3.4918  -3.3432   0.1596   0.8464   1.1131   1.4566

     occupation numbers 
     1.0000   1.0000   1.0000   1.0000   0.0000   0.0000   0.0000   0.0000

          k = 0.0904 0.0526 0.0000 (  2878 PWs)   bands (ev):

   -13.1250  -4.7684  -4.0897  -3.6075   0.4721   1.1264   1.4169   1.4664

     occupation numbers 
     1.0000   1.0000   1.0000   1.0000   0.0000   0.0000   0.0000   0.0000

          k = 0.0904 0.0526 0.0290 (  2880 PWs)   bands (ev):

   -13.1250  -4.7684  -4.0897  -3.6075   0.4721   1.1264   1.4170   1.4732

     occupation numbers 
     1.0000   1.0000   1.0000   1.0000   0.0000   0.0000   0.0000   0.0000

          k = 0.0904 0.0526 0.0580 (  2872 PWs)   bands (ev):

   -13.1250  -4.7684  -4.0897  -3.6075   0.4722   1.1264   1.4170   1.4922

     occupation numbers 
     1.0000   1.0000   1.0000   1.0000   0.0000   0.0000   0.0000   0.0000

          k = 0.0904 0.0526 0.0870 (  2875 PWs)   bands (ev):

   -13.1250  -4.7684  -4.0897  -3.6075   0.4722   1.1264   1.4171   1.5193

     occupation numbers 
     1.0000   1.0000   1.0000   1.0000   0.0000   0.0000   0.0000   0.0000

          k = 0.0904 0.0526 0.1161 (  2865 PWs)   bands (ev):

   -13.1250  -4.7684  -4.0897  -3.6075   0.4722   1.1265   1.4171   1.5470

     occupation numbers 
     1.0000   1.0000   1.0000   1.0000   0.0000   0.0000   0.0000   0.0000

          k = 0.0904 0.0526 0.1451 (  2865 PWs)   bands (ev):

   -13.1250  -4.7684  -4.0897  -3.6075   0.4722   1.1265   1.4171   1.5649

     occupation numbers 
     1.0000   1.0000   1.0000   1.0000   0.0000   0.0000   0.0000   0.0000

          k = 0.1809 0.1052 0.0000 (  2876 PWs)   bands (ev):

   -12.8355  -5.4259  -4.4858  -3.9716   0.1062   1.7905   2.3437   2.5338

     occupation numbers 
     1.0000   1.0000   1.0000   1.0000   0.0000   0.0000   0.0000   0.0000

          k = 0.1809 0.1052 0.0290 (  2875 PWs)   bands (ev):

   -12.8355  -5.4259  -4.4858  -3.9716   0.1062   1.7972   2.3437   2.5339

     occupation numbers 
     1.0000   1.0000   1.0000   1.0000   0.0000   0.0000   0.0000   0.0000

          k = 0.1809 0.1052 0.0580 (  2872 PWs)   bands (ev):

   -12.8355  -5.4259  -4.4858  -3.9716   0.1062   1.8159   2.3438   2.5339

     occupation numbers 
     1.0000   1.0000   1.0000   1.0000   0.0000   0.0000   0.0000   0.0000

          k = 0.1809 0.1052 0.0870 (  2879 PWs)   bands (ev):

   -12.8355  -5.4259  -4.4859  -3.9716   0.1062   1.8424   2.3438   2.5341

     occupation numbers 
     1.0000   1.0000   1.0000   1.0000   0.0000   0.0000   0.0000   0.0000

          k = 0.1809 0.1052 0.1161 (  2872 PWs)   bands (ev):

   -12.8355  -5.4259  -4.4859  -3.9716   0.1062   1.8695   2.3438   2.5342

     occupation numbers 
     1.0000   1.0000   1.0000   1.0000   0.0000   0.0000   0.0000   0.0000

          k = 0.1809 0.1052 0.1451 (  2874 PWs)   bands (ev):

   -12.8355  -5.4259  -4.4859  -3.9716   0.1062   1.8870   2.3438   2.5344

     occupation numbers 
     1.0000   1.0000   1.0000   1.0000   0.0000   0.0000   0.0000   0.0000

          k = 0.2713 0.1577 0.0000 (  2867 PWs)   bands (ev):

   -12.3644  -6.8252  -4.3445  -4.0260  -0.3585   1.4371   2.3278   3.6812

     occupation numbers 
     1.0000   1.0000   1.0000   1.0000   0.0000   0.0000   0.0000   0.0000

          k = 0.2713 0.1577 0.0290 (  2861 PWs)   bands (ev):

   -12.3644  -6.8252  -4.3445  -4.0260  -0.3585   1.4371   2.3342   3.6811

     occupation numbers 
     1.0000   1.0000   1.0000   1.0000   0.0000   0.0000   0.0000   0.0000

          k = 0.2713 0.1577 0.0580 (  2860 PWs)   bands (ev):

   -12.3644  -6.8252  -4.3445  -4.0260  -0.3585   1.4371   2.3523   3.6811

     occupation numbers 
     1.0000   1.0000   1.0000   1.0000   0.0000   0.0000   0.0000   0.0000

          k = 0.2713 0.1577 0.0870 (  2863 PWs)   bands (ev):

   -12.3644  -6.8252  -4.3445  -4.0260  -0.3585   1.4370   2.3779   3.6811

     occupation numbers 
     1.0000   1.0000   1.0000   1.0000   0.0000   0.0000   0.0000   0.0000

          k = 0.2713 0.1577 0.1161 (  2868 PWs)   bands (ev):

   -12.3644  -6.8252  -4.3445  -4.0260  -0.3585   1.4369   2.4037   3.6811

     occupation numbers 
     1.0000   1.0000   1.0000   1.0000   0.0000   0.0000   0.0000   0.0000

          k = 0.2713 0.1577 0.1451 (  2869 PWs)   bands (ev):

   -12.3644  -6.8252  -4.3445  -4.0261  -0.3585   1.4369   2.4205   3.6811

     occupation numbers 
     1.0000   1.0000   1.0000   1.0000   0.0000   0.0000   0.0000   0.0000

          k = 0.3617 0.2103 0.0000 (  2873 PWs)   bands (ev):

   -11.7445  -8.1022  -4.6276  -3.4214  -0.7152   0.1852   3.0656   4.7745

     occupation numbers 
     1.0000   1.0000   1.0000   1.0000   0.0000   0.0000   0.0000   0.0000

          k = 0.3617 0.2103 0.0290 (  2873 PWs)   bands (ev):

   -11.7445  -8.1022  -4.6276  -3.4214  -0.7152   0.1852   3.0716   4.6830

     occupation numbers 
     1.0000   1.0000   1.0000   1.0000   0.0000   0.0000   0.0000   0.0000

          k = 0.3617 0.2103 0.0580 (  2865 PWs)   bands (ev):

   -11.7445  -8.1022  -4.6276  -3.4214  -0.7152   0.1852   3.0883   4.5258

     occupation numbers 
     1.0000   1.0000   1.0000   1.0000   0.0000   0.0000   0.0000   0.0000

          k = 0.3617 0.2103 0.0870 (  2860 PWs)   bands (ev):

   -11.7445  -8.1022  -4.6276  -3.4215  -0.7152   0.1852   3.1118   4.3818

     occupation numbers 
     1.0000   1.0000   1.0000   1.0000   0.0000   0.0000   0.0000   0.0000

          k = 0.3617 0.2103 0.1161 (  2863 PWs)   bands (ev):

   -11.7445  -8.1022  -4.6276  -3.4215  -0.7152   0.1852   3.1355   4.2740

     occupation numbers 
     1.0000   1.0000   1.0000   1.0000   0.0000   0.0000   0.0000   0.0000

          k = 0.3617 0.2103 0.1451 (  2868 PWs)   bands (ev):

   -11.7445  -8.1022  -4.6276  -3.4215  -0.7152   0.1851   3.1506   4.2159

     occupation numbers 
     1.0000   1.0000   1.0000   1.0000   0.0000   0.0000   0.0000   0.0000

          k = 0.4522 0.2629 0.0000 (  2873 PWs)   bands (ev):

   -11.1225  -9.0615  -4.7772  -2.8185  -0.9036  -0.7509   3.9470   5.1018

     occupation numbers 
     1.0000   1.0000   1.0000   1.0000   0.0000   0.0000   0.0000   0.0000

          k = 0.4522 0.2629 0.0290 (  2870 PWs)   bands (ev):

   -11.1225  -9.0615  -4.7772  -2.8185  -0.9036  -0.7509   3.9518   5.1056

     occupation numbers 
     1.0000   1.0000   1.0000   1.0000   0.0000   0.0000   0.0000   0.0000

          k = 0.4522 0.2629 0.0580 (  2870 PWs)   bands (ev):

   -11.1225  -9.0615  -4.7772  -2.8185  -0.9036  -0.7509   3.9650   5.1154

     occupation numbers 
     1.0000   1.0000   1.0000   1.0000   0.0000   0.0000   0.0000   0.0000

          k = 0.4522 0.2629 0.0870 (  2867 PWs)   bands (ev):

   -11.1225  -9.0615  -4.7772  -2.8186  -0.9036  -0.7509   3.9834   5.1283

     occupation numbers 
     1.0000   1.0000   1.0000   1.0000   0.0000   0.0000   0.0000   0.0000

          k = 0.4522 0.2629 0.1161 (  2870 PWs)   bands (ev):

   -11.1225  -9.0615  -4.7772  -2.8186  -0.9036  -0.7510   4.0014   5.1363

     occupation numbers 
     1.0000   1.0000   1.0000   1.0000   0.0000   0.0000   0.0000   0.0000

          k = 0.4522 0.2629 0.1451 (  2866 PWs)   bands (ev):

   -11.1225  -9.0615  -4.7772  -2.8186  -0.9036  -0.7510   4.0127   5.1317

     occupation numbers 
     1.0000   1.0000   1.0000   1.0000   0.0000   0.0000   0.0000   0.0000

          k = 0.1809 0.0000 0.0000 (  2891 PWs)   bands (ev):

   -12.9335  -4.9563  -4.5813  -4.0185   0.8289   1.0369   1.6819   2.6060

     occupation numbers 
     1.0000   1.0000   1.0000   1.0000   0.0000   0.0000   0.0000   0.0000

          k = 0.1809 0.0000 0.0290 (  2884 PWs)   bands (ev):

   -12.9335  -4.9562  -4.5813  -4.0185   0.8289   1.0369   1.6886   2.6060

     occupation numbers 
     1.0000   1.0000   1.0000   1.0000   0.0000   0.0000   0.0000   0.0000

          k = 0.1809 0.0000 0.0580 (  2888 PWs)   bands (ev):

   -12.9335  -4.9562  -4.5813  -4.0185   0.8289   1.0369   1.7074   2.6060

     occupation numbers 
     1.0000   1.0000   1.0000   1.0000   0.0000   0.0000   0.0000   0.0000

          k = 0.1809 0.0000 0.0870 (  2878 PWs)   bands (ev):

   -12.9335  -4.9562  -4.5813  -4.0185   0.8289   1.0369   1.7343   2.6060

     occupation numbers 
     1.0000   1.0000   1.0000   1.0000   0.0000   0.0000   0.0000   0.0000

          k = 0.1809 0.0000 0.1161 (  2878 PWs)   bands (ev):

   -12.9335  -4.9562  -4.5813  -4.0185   0.8290   1.0369   1.7616   2.6060

     occupation numbers 
     1.0000   1.0000   1.0000   1.0000   0.0000   0.0000   0.0000   0.0000

          k = 0.1809 0.0000 0.1451 (  2874 PWs)   bands (ev):

   -12.9335  -4.9562  -4.5813  -4.0185   0.8290   1.0369   1.7794   2.6060

     occupation numbers 
     1.0000   1.0000   1.0000   1.0000   0.0000   0.0000   0.0000   0.0000

          k = 0.2713 0.0526 0.0000 (  2872 PWs)   bands (ev):

   -12.5541  -6.2085  -4.5097  -4.2109   0.4562   2.0000   2.0742   2.1215

     occupation numbers 
     1.0000   1.0000   1.0000   1.0000   0.0000   0.0000   0.0000   0.0000

          k = 0.2713 0.0526 0.0290 (  2872 PWs)   bands (ev):

   -12.5541  -6.2085  -4.5097  -4.2109   0.4562   2.0000   2.0753   2.1270

     occupation numbers 
     1.0000   1.0000   1.0000   1.0000   0.0000   0.0000   0.0000   0.0000

          k = 0.2713 0.0526 0.0580 (  2868 PWs)   bands (ev):

   -12.5541  -6.2085  -4.5097  -4.2109   0.4562   2.0000   2.0773   2.1434

     occupation numbers 
     1.0000   1.0000   1.0000   1.0000   0.0000   0.0000   0.0000   0.0000

          k = 0.2713 0.0526 0.0870 (  2867 PWs)   bands (ev):

   -12.5541  -6.2085  -4.5097  -4.2109   0.4562   1.9999   2.0789   2.1679

     occupation numbers 
     1.0000   1.0000   1.0000   1.0000   0.0000   0.0000   0.0000   0.0000

          k = 0.2713 0.0526 0.1161 (  2872 PWs)   bands (ev):

   -12.5541  -6.2085  -4.5097  -4.2109   0.4562   1.9998   2.0797   2.1935

     occupation numbers 
     1.0000   1.0000   1.0000   1.0000   0.0000   0.0000   0.0000   0.0000

          k = 0.2713 0.0526 0.1451 (  2872 PWs)   bands (ev):

   -12.5541  -6.2085  -4.5097  -4.2109   0.4562   1.9998   2.0801   2.2103

     occupation numbers 
     1.0000   1.0000   1.0000   1.0000   0.0000   0.0000   0.0000   0.0000

          k = 0.3617 0.1052 0.0000 (  2859 PWs)   bands (ev):

   -12.0046  -7.4982  -4.9066  -3.6745   0.0595   0.7512   2.7479   3.5368

     occupation numbers 
     1.0000   1.0000   1.0000   1.0000   0.0000   0.0000   0.0000   0.0000

          k = 0.3617 0.1052 0.0290 (  2861 PWs)   bands (ev):

   -12.0046  -7.4982  -4.9066  -3.6745   0.0595   0.7511   2.7540   3.5369

     occupation numbers 
     1.0000   1.0000   1.0000   1.0000   0.0000   0.0000   0.0000   0.0000

          k = 0.3617 0.1052 0.0580 (  2867 PWs)   bands (ev):

   -12.0046  -7.4982  -4.9067  -3.6745   0.0595   0.7511   2.7713   3.5371

     occupation numbers 
     1.0000   1.0000   1.0000   1.0000   0.0000   0.0000   0.0000   0.0000

          k = 0.3617 0.1052 0.0870 (  2869 PWs)   bands (ev):

   -12.0046  -7.4982  -4.9067  -3.6745   0.0595   0.7511   2.7957   3.5374

     occupation numbers 
     1.0000   1.0000   1.0000   1.0000   0.0000   0.0000   0.0000   0.0000

          k = 0.3617 0.1052 0.1161 (  2866 PWs)   bands (ev):

   -12.0046  -7.4982  -4.9066  -3.6745   0.0595   0.7511   2.8203   3.5380

     occupation numbers 
     1.0000   1.0000   1.0000   1.0000   0.0000   0.0000   0.0000   0.0000

          k = 0.3617 0.1052 0.1451 (  2868 PWs)   bands (ev):

   -12.0046  -7.4982  -4.9067  -3.6746   0.0595   0.7511   2.8362   3.5384

     occupation numbers 
     1.0000   1.0000   1.0000   1.0000   0.0000   0.0000   0.0000   0.0000

          k = 0.4522 0.1577 0.0000 (  2858 PWs)   bands (ev):

   -11.3468  -8.6343  -5.1522  -3.0342  -0.3512  -0.2052   3.5674   4.2686

     occupation numbers 
     1.0000   1.0000   1.0000   1.0000   0.0000   0.0000   0.0000   0.0000

          k = 0.4522 0.1577 0.0290 (  2863 PWs)   bands (ev):

   -11.3468  -8.6343  -5.1522  -3.0342  -0.3512  -0.2052   3.5728   4.2664

     occupation numbers 
     1.0000   1.0000   1.0000   1.0000   0.0000   0.0000   0.0000   0.0000

          k = 0.4522 0.1577 0.0580 (  2861 PWs)   bands (ev):

   -11.3468  -8.6343  -5.1522  -3.0342  -0.3512  -0.2052   3.5880   4.2600

     occupation numbers 
     1.0000   1.0000   1.0000   1.0000   0.0000   0.0000   0.0000   0.0000

          k = 0.4522 0.1577 0.0870 (  2865 PWs)   bands (ev):

   -11.3468  -8.6343  -5.1522  -3.0342  -0.3512  -0.2052   3.6092   4.2501

     occupation numbers 
     1.0000   1.0000   1.0000   1.0000   0.0000   0.0000   0.0000   0.0000

          k = 0.4522 0.1577 0.1161 (  2871 PWs)   bands (ev):

   -11.3468  -8.6343  -5.1522  -3.0342  -0.3512  -0.2052   3.6304   4.2391

     occupation numbers 
     1.0000   1.0000   1.0000   1.0000   0.0000   0.0000   0.0000   0.0000

          k = 0.4522 0.1577 0.1451 (  2866 PWs)   bands (ev):

   -11.3468  -8.6343  -5.1522  -3.0342  -0.3512  -0.2052   3.6439   4.2315

     occupation numbers 
     1.0000   1.0000   1.0000   1.0000   0.0000   0.0000   0.0000   0.0000

          k = 0.5426 0.2103 0.0000 (  2872 PWs)   bands (ev):

   -10.9164  -9.2335  -5.2271  -2.6200  -0.9283  -0.3010   4.2049   4.2976

     occupation numbers 
     1.0000   1.0000   1.0000   1.0000   0.0000   0.0000   0.0000   0.0000

          k = 0.5426 0.2103 0.0290 (  2866 PWs)   bands (ev):

   -10.9164  -9.2335  -5.2271  -2.6200  -0.9283  -0.3010   4.2044   4.3009

     occupation numbers 
     1.0000   1.0000   1.0000   1.0000   0.0000   0.0000   0.0000   0.0000

          k = 0.5426 0.2103 0.0580 (  2859 PWs)   bands (ev):

   -10.9164  -9.2335  -5.2271  -2.6200  -0.9283  -0.3010   4.2031   4.3100

     occupation numbers 
     1.0000   1.0000   1.0000   1.0000   0.0000   0.0000   0.0000   0.0000

          k = 0.5426 0.2103 0.0870 (  2851 PWs)   bands (ev):

   -10.9164  -9.2335  -5.2271  -2.6200  -0.9283  -0.3010   4.2015   4.3222

     occupation numbers 
     1.0000   1.0000   1.0000   1.0000   0.0000   0.0000   0.0000   0.0000

          k = 0.5426 0.2103 0.1161 (  2851 PWs)   bands (ev):

   -10.9164  -9.2335  -5.2271  -2.6200  -0.9283  -0.3010   4.2000   4.3339

     occupation numbers 
     1.0000   1.0000   1.0000   1.0000   0.0000   0.0000   0.0000   0.0000

          k = 0.5426 0.2103 0.1451 (  2858 PWs)   bands (ev):

   -10.9164  -9.2335  -5.2271  -2.6200  -0.9284  -0.3010   4.1992   4.3411

     occupation numbers 
     1.0000   1.0000   1.0000   1.0000   0.0000   0.0000   0.0000   0.0000

          k =-0.3617-0.3155 0.0000 (  2853 PWs)   bands (ev):

   -11.3312  -8.6663  -5.1260  -3.0205  -0.3773  -0.2177   3.5782   4.3128

     occupation numbers 
     1.0000   1.0000   1.0000   1.0000   0.0000   0.0000   0.0000   0.0000

          k =-0.3617-0.3155 0.0290 (  2857 PWs)   bands (ev):

   -11.3312  -8.6663  -5.1260  -3.0205  -0.3773  -0.2177   3.5837   4.3106

     occupation numbers 
     1.0000   1.0000   1.0000   1.0000   0.0000   0.0000   0.0000   0.0000

          k =-0.3617-0.3155 0.0580 (  2856 PWs)   bands (ev):

   -11.3312  -8.6663  -5.1260  -3.0205  -0.3774  -0.2177   3.5989   4.3045

     occupation numbers 
     1.0000   1.0000   1.0000   1.0000   0.0000   0.0000   0.0000   0.0000

          k =-0.3617-0.3155 0.0870 (  2866 PWs)   bands (ev):

   -11.3312  -8.6663  -5.1260  -3.0205  -0.3774  -0.2177   3.6201   4.2949

     occupation numbers 
     1.0000   1.0000   1.0000   1.0000   0.0000   0.0000   0.0000   0.0000

          k =-0.3617-0.3155 0.1161 (  2868 PWs)   bands (ev):

   -11.3312  -8.6663  -5.1260  -3.0205  -0.3774  -0.2177   3.6413   4.2841

     occupation numbers 
     1.0000   1.0000   1.0000   1.0000   0.0000   0.0000   0.0000   0.0000

          k =-0.3617-0.3155 0.1451 (  2866 PWs)   bands (ev):

   -11.3312  -8.6663  -5.1260  -3.0205  -0.3774  -0.2177   3.6548   4.2767

     occupation numbers 
     1.0000   1.0000   1.0000   1.0000   0.0000   0.0000   0.0000   0.0000

          k =-0.2713-0.2629 0.0000 (  2862 PWs)   bands (ev):

   -11.9905  -7.5478  -4.8525  -3.6620   0.0373   0.7141   2.7567   3.4570

     occupation numbers 
     1.0000   1.0000   1.0000   1.0000   0.0000   0.0000   0.0000   0.0000

          k =-0.2713-0.2629 0.0290 (  2864 PWs)   bands (ev):

   -11.9905  -7.5478  -4.8525  -3.6620   0.0373   0.7141   2.7629   3.4570

     occupation numbers 
     1.0000   1.0000   1.0000   1.0000   0.0000   0.0000   0.0000   0.0000

          k =-0.2713-0.2629 0.0580 (  2869 PWs)   bands (ev):

   -11.9905  -7.5478  -4.8525  -3.6620   0.0373   0.7141   2.7802   3.4571

     occupation numbers 
     1.0000   1.0000   1.0000   1.0000   0.0000   0.0000   0.0000   0.0000

          k =-0.2713-0.2629 0.0870 (  2869 PWs)   bands (ev):

   -11.9905  -7.5478  -4.8525  -3.6620   0.0373   0.7141   2.8047   3.4574

     occupation numbers 
     1.0000   1.0000   1.0000   1.0000   0.0000   0.0000   0.0000   0.0000

          k =-0.2713-0.2629 0.1161 (  2867 PWs)   bands (ev):

   -11.9905  -7.5478  -4.8525  -3.6620   0.0373   0.7141   2.8294   3.4577

     occupation numbers 
     1.0000   1.0000   1.0000   1.0000   0.0000   0.0000   0.0000   0.0000

          k =-0.2713-0.2629 0.1451 (  2875 PWs)   bands (ev):

   -11.9905  -7.5478  -4.8525  -3.6620   0.0373   0.7140   2.8452   3.4579

     occupation numbers 
     1.0000   1.0000   1.0000   1.0000   0.0000   0.0000   0.0000   0.0000

          k =-0.1809-0.2103 0.0000 (  2873 PWs)   bands (ev):

   -12.5439  -6.2794  -4.4242  -4.2018   0.4329   1.9572   2.0155   2.1183

     occupation numbers 
     1.0000   1.0000   1.0000   1.0000   0.0000   0.0000   0.0000   0.0000

          k =-0.1809-0.2103 0.0290 (  2871 PWs)   bands (ev):

   -12.5439  -6.2794  -4.4242  -4.2018   0.4329   1.9572   2.0155   2.1248

     occupation numbers 
     1.0000   1.0000   1.0000   1.0000   0.0000   0.0000   0.0000   0.0000

          k =-0.1809-0.2103 0.0580 (  2869 PWs)   bands (ev):

   -12.5439  -6.2794  -4.4242  -4.2018   0.4329   1.9571   2.0156   2.1431

     occupation numbers 
     1.0000   1.0000   1.0000   1.0000   0.0000   0.0000   0.0000   0.0000

          k =-0.1809-0.2103 0.0870 (  2875 PWs)   bands (ev):

   -12.5439  -6.2794  -4.4242  -4.2018   0.4329   1.9570   2.0156   2.1692

     occupation numbers 
     1.0000   1.0000   1.0000   1.0000   0.0000   0.0000   0.0000   0.0000

          k =-0.1809-0.2103 0.1161 (  2868 PWs)   bands (ev):

   -12.5439  -6.2794  -4.4242  -4.2018   0.4329   1.9570   2.0157   2.1956

     occupation numbers 
     1.0000   1.0000   1.0000   1.0000   0.0000   0.0000   0.0000   0.0000

          k =-0.1809-0.2103 0.1451 (  2867 PWs)   bands (ev):

   -12.5439  -6.2794  -4.4242  -4.2018   0.4329   1.9569   2.0157   2.2127

     occupation numbers 
     1.0000   1.0000   1.0000   1.0000   0.0000   0.0000   0.0000   0.0000

          k =-0.0904-0.1577 0.0000 (  2875 PWs)   bands (ev):

   -12.9273  -5.0531  -4.5758  -3.9031   0.8403   0.9698   1.6851   2.5907

     occupation numbers 
     1.0000   1.0000   1.0000   1.0000   0.0000   0.0000   0.0000   0.0000

          k =-0.0904-0.1577 0.0290 (  2880 PWs)   bands (ev):

   -12.9273  -5.0531  -4.5758  -3.9031   0.8403   0.9698   1.6918   2.5907

     occupation numbers 
     1.0000   1.0000   1.0000   1.0000   0.0000   0.0000   0.0000   0.0000

          k =-0.0904-0.1577 0.0580 (  2879 PWs)   bands (ev):

   -12.9273  -5.0531  -4.5758  -3.9031   0.8403   0.9698   1.7106   2.5907

     occupation numbers 
     1.0000   1.0000   1.0000   1.0000   0.0000   0.0000   0.0000   0.0000

          k =-0.0904-0.1577 0.0870 (  2874 PWs)   bands (ev):

   -12.9273  -5.0530  -4.5759  -3.9031   0.8403   0.9698   1.7374   2.5907

     occupation numbers 
     1.0000   1.0000   1.0000   1.0000   0.0000   0.0000   0.0000   0.0000

          k =-0.0904-0.1577 0.1161 (  2875 PWs)   bands (ev):

   -12.9273  -5.0530  -4.5759  -3.9031   0.8403   0.9698   1.7647   2.5907

     occupation numbers 
     1.0000   1.0000   1.0000   1.0000   0.0000   0.0000   0.0000   0.0000

          k =-0.0904-0.1577 0.1451 (  2876 PWs)   bands (ev):

   -12.9273  -5.0530  -4.5759  -3.9031   0.8403   0.9698   1.7824   2.5908

     occupation numbers 
     1.0000   1.0000   1.0000   1.0000   0.0000   0.0000   0.0000   0.0000

          k =-0.0000-0.1052 0.0000 (  2877 PWs)   bands (ev):

   -13.1230  -4.7666  -4.1648  -3.5233   0.4587   1.2235   1.3021   1.4675

     occupation numbers 
     1.0000   1.0000   1.0000   1.0000   0.0000   0.0000   0.0000   0.0000

          k =-0.0000-0.1052 0.0290 (  2876 PWs)   bands (ev):

   -13.1230  -4.7666  -4.1648  -3.5233   0.4588   1.2235   1.3021   1.4743

     occupation numbers 
     1.0000   1.0000   1.0000   1.0000   0.0000   0.0000   0.0000   0.0000

          k =-0.0000-0.1052 0.0580 (  2871 PWs)   bands (ev):

   -13.1230  -4.7666  -4.1648  -3.5233   0.4588   1.2235   1.3022   1.4933

     occupation numbers 
     1.0000   1.0000   1.0000   1.0000   0.0000   0.0000   0.0000   0.0000

          k =-0.0000-0.1052 0.0870 (  2872 PWs)   bands (ev):

   -13.1230  -4.7666  -4.1648  -3.5233   0.4588   1.2235   1.3022   1.5204

     occupation numbers 
     1.0000   1.0000   1.0000   1.0000   0.0000   0.0000   0.0000   0.0000

          k =-0.0000-0.1052 0.1161 (  2868 PWs)   bands (ev):

   -13.1230  -4.7666  -4.1648  -3.5233   0.4588   1.2235   1.3023   1.5480

     occupation numbers 
     1.0000   1.0000   1.0000   1.0000   0.0000   0.0000   0.0000   0.0000

          k =-0.0000-0.1052 0.1451 (  2862 PWs)   bands (ev):

   -13.1230  -4.7666  -4.1648  -3.5233   0.4588   1.2235   1.3023   1.5660

     occupation numbers 
     1.0000   1.0000   1.0000   1.0000   0.0000   0.0000   0.0000   0.0000

          k = 0.3617 0.0000 0.0000 (  2862 PWs)   bands (ev):

   -12.0931  -7.1609  -5.2307  -3.7606   1.0360   1.3474   1.9473   2.6438

     occupation numbers 
     1.0000   1.0000   1.0000   1.0000   0.0000   0.0000   0.0000   0.0000

          k = 0.3617 0.0000 0.0290 (  2859 PWs)   bands (ev):

   -12.0931  -7.1609  -5.2307  -3.7606   1.0360   1.3474   1.9473   2.6500

     occupation numbers 
     1.0000   1.0000   1.0000   1.0000   0.0000   0.0000   0.0000   0.0000

          k = 0.3617 0.0000 0.0580 (  2868 PWs)   bands (ev):

   -12.0931  -7.1609  -5.2307  -3.7607   1.0359   1.3474   1.9473   2.6676

     occupation numbers 
     1.0000   1.0000   1.0000   1.0000   0.0000   0.0000   0.0000   0.0000

          k = 0.3617 0.0000 0.0870 (  2872 PWs)   bands (ev):

   -12.0931  -7.1609  -5.2307  -3.7607   1.0359   1.3474   1.9473   2.6925

     occupation numbers 
     1.0000   1.0000   1.0000   1.0000   0.0000   0.0000   0.0000   0.0000

          k = 0.3617 0.0000 0.1161 (  2866 PWs)   bands (ev):

   -12.0931  -7.1609  -5.2307  -3.7607   1.0359   1.3474   1.9473   2.7178

     occupation numbers 
     1.0000   1.0000   1.0000   1.0000   0.0000   0.0000   0.0000   0.0000

          k = 0.3617 0.0000 0.1451 (  2858 PWs)   bands (ev):

   -12.0931  -7.1609  -5.2307  -3.7607   1.0359   1.3474   1.9473   2.7341

     occupation numbers 
     1.0000   1.0000   1.0000   1.0000   0.0000   0.0000   0.0000   0.0000

          k = 0.4522 0.0526 0.0000 (  2847 PWs)   bands (ev):

   -11.4804  -8.1961  -5.7419  -3.1632   0.0296   1.2684   3.2158   3.3813

     occupation numbers 
     1.0000   1.0000   1.0000   1.0000   0.0000   0.0000   0.0000   0.0000

          k = 0.4522 0.0526 0.0290 (  2851 PWs)   bands (ev):

   -11.4804  -8.1961  -5.7419  -3.1632   0.0296   1.2683   3.2161   3.3863

     occupation numbers 
     1.0000   1.0000   1.0000   1.0000   0.0000   0.0000   0.0000   0.0000

          k = 0.4522 0.0526 0.0580 (  2853 PWs)   bands (ev):

   -11.4804  -8.1961  -5.7419  -3.1632   0.0296   1.2683   3.2168   3.4016

     occupation numbers 
     1.0000   1.0000   1.0000   1.0000   0.0000   0.0000   0.0000   0.0000

          k = 0.4522 0.0526 0.0870 (  2862 PWs)   bands (ev):

   -11.4804  -8.1961  -5.7419  -3.1632   0.0296   1.2683   3.2176   3.4206

     occupation numbers 
     1.0000   1.0000   1.0000   1.0000   0.0000   0.0000   0.0000   0.0000

          k = 0.4522 0.0526 0.1161 (  2864 PWs)   bands (ev):

   -11.4804  -8.1961  -5.7419  -3.1632   0.0296   1.2683   3.2182   3.4454

     occupation numbers 
     1.0000   1.0000   1.0000   1.0000   0.0000   0.0000   0.0000   0.0000

          k = 0.4522 0.0526 0.1451 (  2868 PWs)   bands (ev):

   -11.4804  -8.1961  -5.7419  -3.1633   0.0295   1.2683   3.2186   3.4606

     occupation numbers 
     1.0000   1.0000   1.0000   1.0000   0.0000   0.0000   0.0000   0.0000

          k = 0.5426 0.1052 0.0000 (  2861 PWs)   bands (ev):

   -10.8373  -9.0919  -5.9793  -2.5397  -0.8291   1.1187   3.1995   4.1868

     occupation numbers 
     1.0000   1.0000   1.0000   1.0000   0.0000   0.0000   0.0000   0.0000

          k = 0.5426 0.1052 0.0290 (  2859 PWs)   bands (ev):

   -10.8373  -9.0919  -5.9793  -2.5397  -0.8291   1.1187   3.1993   4.1907

     occupation numbers 
     1.0000   1.0000   1.0000   1.0000   0.0000   0.0000   0.0000   0.0000

          k = 0.5426 0.1052 0.0580 (  2856 PWs)   bands (ev):

   -10.8373  -9.0919  -5.9793  -2.5397  -0.8291   1.1187   3.1988   4.2016

     occupation numbers 
     1.0000   1.0000   1.0000   1.0000   0.0000   0.0000   0.0000   0.0000

          k = 0.5426 0.1052 0.0870 (  2858 PWs)   bands (ev):

   -10.8373  -9.0919  -5.9793  -2.5397  -0.8291   1.1187   3.1982   4.2162

     occupation numbers 
     1.0000   1.0000   1.0000   1.0000   0.0000   0.0000   0.0000   0.0000

          k = 0.5426 0.1052 0.1161 (  2858 PWs)   bands (ev):

   -10.8373  -9.0919  -5.9793  -2.5397  -0.8291   1.1187   3.1976   4.2303

     occupation numbers 
     1.0000   1.0000   1.0000   1.0000   0.0000   0.0000   0.0000   0.0000

          k = 0.5426 0.1052 0.1451 (  2856 PWs)   bands (ev):

   -10.8373  -9.0919  -5.9793  -2.5397  -0.8291   1.1187   3.1973   4.2389

     occupation numbers 
     1.0000   1.0000   1.0000   1.0000   0.0000   0.0000   0.0000   0.0000

          k = 0.6330 0.1577 0.0000 (  2863 PWs)   bands (ev):

   -10.8093  -9.1371  -5.9578  -2.5157  -0.8654   1.1144   3.2206   4.2056

     occupation numbers 
     1.0000   1.0000   1.0000   1.0000   0.0000   0.0000   0.0000   0.0000

          k = 0.6330 0.1577 0.0290 (  2856 PWs)   bands (ev):

   -10.8093  -9.1371  -5.9578  -2.5157  -0.8654   1.1144   3.2205   4.2094

     occupation numbers 
     1.0000   1.0000   1.0000   1.0000   0.0000   0.0000   0.0000   0.0000

          k = 0.6330 0.1577 0.0580 (  2854 PWs)   bands (ev):

   -10.8093  -9.1371  -5.9578  -2.5157  -0.8654   1.1144   3.2200   4.2199

     occupation numbers 
     1.0000   1.0000   1.0000   1.0000   0.0000   0.0000   0.0000   0.0000

          k = 0.6330 0.1577 0.0870 (  2854 PWs)   bands (ev):

   -10.8093  -9.1371  -5.9578  -2.5157  -0.8654   1.1144   3.2194   4.2340

     occupation numbers 
     1.0000   1.0000   1.0000   1.0000   0.0000   0.0000   0.0000   0.0000

          k = 0.6330 0.1577 0.1161 (  2860 PWs)   bands (ev):

   -10.8093  -9.1371  -5.9578  -2.5157  -0.8654   1.1144   3.2189   4.2475

     occupation numbers 
     1.0000   1.0000   1.0000   1.0000   0.0000   0.0000   0.0000   0.0000

          k = 0.6330 0.1577 0.1451 (  2860 PWs)   bands (ev):

   -10.8093  -9.1371  -5.9578  -2.5157  -0.8654   1.1145   3.2185   4.2557

     occupation numbers 
     1.0000   1.0000   1.0000   1.0000   0.0000   0.0000   0.0000   0.0000

          k =-0.2713-0.3680 0.0000 (  2853 PWs)   bands (ev):

   -11.4460  -8.2815  -5.6782  -3.1331  -0.0344   1.2649   3.1141   3.3914

     occupation numbers 
     1.0000   1.0000   1.0000   1.0000   0.0000   0.0000   0.0000   0.0000

          k =-0.2713-0.3680 0.0290 (  2860 PWs)   bands (ev):

   -11.4460  -8.2815  -5.6782  -3.1331  -0.0344   1.2649   3.1140   3.3968

     occupation numbers 
     1.0000   1.0000   1.0000   1.0000   0.0000   0.0000   0.0000   0.0000

          k =-0.2713-0.3680 0.0580 (  2861 PWs)   bands (ev):

   -11.4460  -8.2815  -5.6782  -3.1331  -0.0344   1.2649   3.1141   3.4122

     occupation numbers 
     1.0000   1.0000   1.0000   1.0000   0.0000   0.0000   0.0000   0.0000

          k =-0.2713-0.3680 0.0870 (  2868 PWs)   bands (ev):

   -11.4460  -8.2815  -5.6782  -3.1331  -0.0344   1.2649   3.1142   3.4336

     occupation numbers 
     1.0000   1.0000   1.0000   1.0000   0.0000   0.0000   0.0000   0.0000

          k =-0.2713-0.3680 0.1161 (  2868 PWs)   bands (ev):

   -11.4460  -8.2815  -5.6782  -3.1331  -0.0344   1.2649   3.1143   3.4575

     occupation numbers 
     1.0000   1.0000   1.0000   1.0000   0.0000   0.0000   0.0000   0.0000

          k =-0.2713-0.3680 0.1451 (  2872 PWs)   bands (ev):

   -11.4460  -8.2815  -5.6783  -3.1332  -0.0344   1.2649   3.1144   3.4722

     occupation numbers 
     1.0000   1.0000   1.0000   1.0000   0.0000   0.0000   0.0000   0.0000

          k =-0.1809-0.3155 0.0000 (  2872 PWs)   bands (ev):

   -12.0666  -7.2639  -5.1353  -3.7374   0.9680   1.4406   1.7399   2.6571

     occupation numbers 
     1.0000   1.0000   1.0000   1.0000   0.0000   0.0000   0.0000   0.0000

          k =-0.1809-0.3155 0.0290 (  2864 PWs)   bands (ev):

   -12.0666  -7.2639  -5.1353  -3.7374   0.9680   1.4406   1.7399   2.6634

     occupation numbers 
     1.0000   1.0000   1.0000   1.0000   0.0000   0.0000   0.0000   0.0000

          k =-0.1809-0.3155 0.0580 (  2867 PWs)   bands (ev):

   -12.0666  -7.2639  -5.1353  -3.7374   0.9680   1.4406   1.7399   2.6810

     occupation numbers 
     1.0000   1.0000   1.0000   1.0000   0.0000   0.0000   0.0000   0.0000

          k =-0.1809-0.3155 0.0870 (  2872 PWs)   bands (ev):

   -12.0666  -7.2639  -5.1353  -3.7374   0.9679   1.4406   1.7399   2.7058

     occupation numbers 
     1.0000   1.0000   1.0000   1.0000   0.0000   0.0000   0.0000   0.0000

          k =-0.1809-0.3155 0.1161 (  2866 PWs)   bands (ev):

   -12.0666  -7.2639  -5.1353  -3.7374   0.9679   1.4407   1.7399   2.7310

     occupation numbers 
     1.0000   1.0000   1.0000   1.0000   0.0000   0.0000   0.0000   0.0000

          k =-0.1809-0.3155 0.1451 (  2863 PWs)   bands (ev):

   -12.0666  -7.2639  -5.1353  -3.7374   0.9679   1.4407   1.7399   2.7473

     occupation numbers 
     1.0000   1.0000   1.0000   1.0000   0.0000   0.0000   0.0000   0.0000

          k =-0.0904-0.2629 0.0000 (  2866 PWs)   bands (ev):

   -12.5367  -6.3018  -4.4154  -4.1955   0.4594   1.9478   1.9817   2.1213

     occupation numbers 
     1.0000   1.0000   1.0000   1.0000   0.0000   0.0000   0.0000   0.0000

          k =-0.0904-0.2629 0.0290 (  2868 PWs)   bands (ev):

   -12.5367  -6.3018  -4.4154  -4.1955   0.4594   1.9478   1.9817   2.1278

     occupation numbers 
     1.0000   1.0000   1.0000   1.0000   0.0000   0.0000   0.0000   0.0000

          k =-0.0904-0.2629 0.0580 (  2869 PWs)   bands (ev):

   -12.5367  -6.3018  -4.4154  -4.1955   0.4594   1.9478   1.9817   2.1462

     occupation numbers 
     1.0000   1.0000   1.0000   1.0000   0.0000   0.0000   0.0000   0.0000

          k =-0.0904-0.2629 0.0870 (  2871 PWs)   bands (ev):

   -12.5367  -6.3018  -4.4154  -4.1955   0.4594   1.9478   1.9817   2.1723

     occupation numbers 
     1.0000   1.0000   1.0000   1.0000   0.0000   0.0000   0.0000   0.0000

          k =-0.0904-0.2629 0.1161 (  2875 PWs)   bands (ev):

   -12.5367  -6.3018  -4.4154  -4.1955   0.4594   1.9477   1.9817   2.1987

     occupation numbers 
     1.0000   1.0000   1.0000   1.0000   0.0000   0.0000   0.0000   0.0000

          k =-0.0904-0.2629 0.1451 (  2869 PWs)   bands (ev):

   -12.5367  -6.3018  -4.4154  -4.1955   0.4594   1.9477   1.9817   2.2159

     occupation numbers 
     1.0000   1.0000   1.0000   1.0000   0.0000   0.0000   0.0000   0.0000

          k = 0.0000-0.2103 0.0000 (  2871 PWs)   bands (ev):

   -12.8269  -5.4844  -4.4782  -3.9155   0.1299   1.7956   2.2061   2.5845

     occupation numbers 
     1.0000   1.0000   1.0000   1.0000   0.0000   0.0000   0.0000   0.0000

          k = 0.0000-0.2103 0.0290 (  2869 PWs)   bands (ev):

   -12.8269  -5.4844  -4.4782  -3.9155   0.1299   1.8023   2.2061   2.5845

     occupation numbers 
     1.0000   1.0000   1.0000   1.0000   0.0000   0.0000   0.0000   0.0000

          k = 0.0000-0.2103 0.0580 (  2866 PWs)   bands (ev):

   -12.8269  -5.4844  -4.4782  -3.9155   0.1299   1.8210   2.2061   2.5846

     occupation numbers 
     1.0000   1.0000   1.0000   1.0000   0.0000   0.0000   0.0000   0.0000

          k = 0.0000-0.2103 0.0870 (  2870 PWs)   bands (ev):

   -12.8269  -5.4844  -4.4783  -3.9156   0.1299   1.8477   2.2061   2.5846

     occupation numbers 
     1.0000   1.0000   1.0000   1.0000   0.0000   0.0000   0.0000   0.0000

          k = 0.0000-0.2103 0.1161 (  2873 PWs)   bands (ev):

   -12.8269  -5.4844  -4.4783  -3.9156   0.1299   1.8748   2.2061   2.5846

     occupation numbers 
     1.0000   1.0000   1.0000   1.0000   0.0000   0.0000   0.0000   0.0000

          k = 0.0000-0.2103 0.1451 (  2869 PWs)   bands (ev):

   -12.8269  -5.4844  -4.4783  -3.9156   0.1299   1.8924   2.2061   2.5846

     occupation numbers 
     1.0000   1.0000   1.0000   1.0000   0.0000   0.0000   0.0000   0.0000

          k = 0.5426 0.0000 0.0000 (  2852 PWs)   bands (ev):

   -10.8320  -8.9413  -6.3450  -2.5321  -0.7161   2.5733   2.7961   3.2771

     occupation numbers 
     1.0000   1.0000   1.0000   1.0000   0.0000   0.0000   0.0000   0.0000

          k = 0.5426 0.0000 0.0290 (  2845 PWs)   bands (ev):

   -10.8320  -8.9413  -6.3450  -2.5321  -0.7161   2.5734   2.7959   3.2772

     occupation numbers 
     1.0000   1.0000   1.0000   1.0000   0.0000   0.0000   0.0000   0.0000

          k = 0.5426 0.0000 0.0580 (  2846 PWs)   bands (ev):

   -10.8320  -8.9413  -6.3450  -2.5321  -0.7161   2.5734   2.7956   3.2772

     occupation numbers 
     1.0000   1.0000   1.0000   1.0000   0.0000   0.0000   0.0000   0.0000

          k = 0.5426 0.0000 0.0870 (  2852 PWs)   bands (ev):

   -10.8320  -8.9413  -6.3450  -2.5321  -0.7161   2.5734   2.7951   3.2772

     occupation numbers 
     1.0000   1.0000   1.0000   1.0000   0.0000   0.0000   0.0000   0.0000

          k = 0.5426 0.0000 0.1161 (  2851 PWs)   bands (ev):

   -10.8320  -8.9413  -6.3450  -2.5322  -0.7161   2.5734   2.7946   3.2772

     occupation numbers 
[...]

          k =-0.1809-0.4206 0.0870 (  2860 PWs)   bands (ev):

   -11.4259  -8.3141  -5.6724  -3.1160  -0.0564   1.2497   3.1325   3.4368

     occupation numbers 
     1.0000   1.0000   1.0000   1.0000   0.0000   0.0000   0.0000   0.0000

          k =-0.1809-0.4206 0.1161 (  2864 PWs)   bands (ev):

   -11.4259  -8.3141  -5.6724  -3.1160  -0.0564   1.2497   3.1325   3.4610

     occupation numbers 
     1.0000   1.0000   1.0000   1.0000   0.0000   0.0000   0.0000   0.0000

          k =-0.1809-0.4206 0.1451 (  2869 PWs)   bands (ev):

   -11.4259  -8.3141  -5.6724  -3.1161  -0.0565   1.2497   3.1325   3.4759

     occupation numbers 
     1.0000   1.0000   1.0000   1.0000   0.0000   0.0000   0.0000   0.0000

          k =-0.0904-0.3680 0.0000 (  2865 PWs)   bands (ev):

   -11.9671  -7.5911  -4.8472  -3.6418   0.0411   0.6873   2.7677   3.4474

     occupation numbers 
     1.0000   1.0000   1.0000   1.0000   0.0000   0.0000   0.0000   0.0000

          k =-0.0904-0.3680 0.0290 (  2861 PWs)   bands (ev):

   -11.9671  -7.5911  -4.8472  -3.6418   0.0411   0.6873   2.7739   3.4474

     occupation numbers 
     1.0000   1.0000   1.0000   1.0000   0.0000   0.0000   0.0000   0.0000

          k =-0.0904-0.3680 0.0580 (  2867 PWs)   bands (ev):

   -11.9671  -7.5911  -4.8472  -3.6418   0.0411   0.6873   2.7913   3.4475

     occupation numbers 
     1.0000   1.0000   1.0000   1.0000   0.0000   0.0000   0.0000   0.0000

          k =-0.0904-0.3680 0.0870 (  2871 PWs)   bands (ev):

   -11.9671  -7.5911  -4.8472  -3.6418   0.0411   0.6873   2.8159   3.4476

     occupation numbers 
     1.0000   1.0000   1.0000   1.0000   0.0000   0.0000   0.0000   0.0000

          k =-0.0904-0.3680 0.1161 (  2871 PWs)   bands (ev):

   -11.9671  -7.5911  -4.8472  -3.6418   0.0411   0.6872   2.8407   3.4477

     occupation numbers 
     1.0000   1.0000   1.0000   1.0000   0.0000   0.0000   0.0000   0.0000

          k =-0.0904-0.3680 0.1451 (  2873 PWs)   bands (ev):

   -11.9671  -7.5911  -4.8472  -3.6418   0.0411   0.6872   2.8567   3.4478

     occupation numbers 
     1.0000   1.0000   1.0000   1.0000   0.0000   0.0000   0.0000   0.0000

          k = 0.0000-0.3155 0.0000 (  2875 PWs)   bands (ev):

   -12.3425  -6.8842  -4.3137  -4.0069  -0.3519   1.4023   2.3393   3.5853

     occupation numbers 
     1.0000   1.0000   1.0000   1.0000   0.0000   0.0000   0.0000   0.0000

          k = 0.0000-0.3155 0.0290 (  2871 PWs)   bands (ev):

   -12.3425  -6.8842  -4.3137  -4.0069  -0.3519   1.4023   2.3457   3.5853

     occupation numbers 
     1.0000   1.0000   1.0000   1.0000   0.0000   0.0000   0.0000   0.0000

          k = 0.0000-0.3155 0.0580 (  2875 PWs)   bands (ev):

   -12.3425  -6.8842  -4.3137  -4.0069  -0.3519   1.4023   2.3638   3.5853

     occupation numbers 
     1.0000   1.0000   1.0000   1.0000   0.0000   0.0000   0.0000   0.0000

          k = 0.0000-0.3155 0.0870 (  2879 PWs)   bands (ev):

   -12.3425  -6.8842  -4.3137  -4.0069  -0.3519   1.4022   2.3895   3.5853

     occupation numbers 
     1.0000   1.0000   1.0000   1.0000   0.0000   0.0000   0.0000   0.0000

          k = 0.0000-0.3155 0.1161 (  2868 PWs)   bands (ev):

   -12.3425  -6.8842  -4.3136  -4.0069  -0.3519   1.4022   2.4154   3.5853

     occupation numbers 
     1.0000   1.0000   1.0000   1.0000   0.0000   0.0000   0.0000   0.0000

          k = 0.0000-0.3155 0.1451 (  2868 PWs)   bands (ev):

   -12.3425  -6.8842  -4.3136  -4.0069  -0.3518   1.4022   2.4322   3.5853

     occupation numbers 
     1.0000   1.0000   1.0000   1.0000   0.0000   0.0000   0.0000   0.0000

          k = 0.7235 0.0000 0.0000 (  2854 PWs)   bands (ev):

   -10.1620  -9.6864  -6.5139  -1.9087  -1.4015   2.5812   2.7384   4.2821

     occupation numbers 
     1.0000   1.0000   1.0000   0.8638   0.0006   0.0000   0.0000   0.0000

          k = 0.7235 0.0000 0.0290 (  2854 PWs)   bands (ev):

   -10.1620  -9.6864  -6.5139  -1.9087  -1.4015   2.5811   2.7384   4.2824

     occupation numbers 
     1.0000   1.0000   1.0000   0.8638   0.0006   0.0000   0.0000   0.0000

          k = 0.7235 0.0000 0.0580 (  2850 PWs)   bands (ev):

   -10.1620  -9.6864  -6.5139  -1.9087  -1.4015   2.5810   2.7384   4.2832

     occupation numbers 
     1.0000   1.0000   1.0000   0.8638   0.0006   0.0000   0.0000   0.0000

          k = 0.7235 0.0000 0.0870 (  2846 PWs)   bands (ev):

   -10.1620  -9.6864  -6.5139  -1.9087  -1.4015   2.5807   2.7384   4.2843

     occupation numbers 
     1.0000   1.0000   1.0000   0.8638   0.0006   0.0000   0.0000   0.0000

          k = 0.7235 0.0000 0.1161 (  2843 PWs)   bands (ev):

   -10.1620  -9.6864  -6.5139  -1.9087  -1.4015   2.5805   2.7384   4.2853

     occupation numbers 
     1.0000   1.0000   1.0000   0.8638   0.0006   0.0000   0.0000   0.0000

          k = 0.7235 0.0000 0.1451 (  2842 PWs)   bands (ev):

   -10.1620  -9.6864  -6.5139  -1.9087  -1.4015   2.5803   2.7384   4.2860

     occupation numbers 
     1.0000   1.0000   1.0000   0.8638   0.0006   0.0000   0.0000   0.0000

          k = 0.8139 0.0526 0.0000 (  2856 PWs)   bands (ev):

   -10.7230  -9.2503  -5.9388  -2.4450  -0.9503   1.0853   3.2239   4.2457

     occupation numbers 
     1.0000   1.0000   1.0000   1.0003   0.0000   0.0000   0.0000   0.0000

          k = 0.8139 0.0526 0.0290 (  2854 PWs)   bands (ev):

   -10.7230  -9.2503  -5.9388  -2.4450  -0.9503   1.0853   3.2237   4.2500

     occupation numbers 
     1.0000   1.0000   1.0000   1.0003   0.0000   0.0000   0.0000   0.0000

          k = 0.8139 0.0526 0.0580 (  2856 PWs)   bands (ev):

   -10.7230  -9.2503  -5.9388  -2.4451  -0.9503   1.0852   3.2232   4.2616

     occupation numbers 
     1.0000   1.0000   1.0000   1.0003   0.0000   0.0000   0.0000   0.0000

          k = 0.8139 0.0526 0.0870 (  2860 PWs)   bands (ev):

   -10.7230  -9.2503  -5.9388  -2.4451  -0.9503   1.0852   3.2226   4.2775

     occupation numbers 
     1.0000   1.0000   1.0000   1.0003   0.0000   0.0000   0.0000   0.0000

          k = 0.8139 0.0526 0.1161 (  2865 PWs)   bands (ev):

   -10.7230  -9.2503  -5.9388  -2.4451  -0.9503   1.0852   3.2221   4.2927

     occupation numbers 
     1.0000   1.0000   1.0000   1.0003   0.0000   0.0000   0.0000   0.0000

          k = 0.8139 0.0526 0.1451 (  2860 PWs)   bands (ev):

   -10.7230  -9.2503  -5.9388  -2.4451  -0.9503   1.0853   3.2218   4.3021

     occupation numbers 
     1.0000   1.0000   1.0000   1.0003   0.0000   0.0000   0.0000   0.0000

          k =-0.0904-0.4732 0.0000 (  2868 PWs)   bands (ev):

   -11.2682  -8.7542  -5.1190  -2.9674  -0.4418  -0.2311   3.6013   4.2912

     occupation numbers 
     1.0000   1.0000   1.0000   1.0000   0.0000   0.0000   0.0000   0.0000

          k =-0.0904-0.4732 0.0290 (  2866 PWs)   bands (ev):

   -11.2682  -8.7542  -5.1190  -2.9674  -0.4418  -0.2311   3.6068   4.2892

     occupation numbers 
     1.0000   1.0000   1.0000   1.0000   0.0000   0.0000   0.0000   0.0000

          k =-0.0904-0.4732 0.0580 (  2867 PWs)   bands (ev):

   -11.2682  -8.7542  -5.1190  -2.9674  -0.4419  -0.2311   3.6222   4.2833

     occupation numbers 
     1.0000   1.0000   1.0000   1.0000   0.0000   0.0000   0.0000   0.0000

          k =-0.0904-0.4732 0.0870 (  2869 PWs)   bands (ev):

   -11.2682  -8.7542  -5.1190  -2.9675  -0.4419  -0.2311   3.6437   4.2742

     occupation numbers 
     1.0000   1.0000   1.0000   1.0000   0.0000   0.0000   0.0000   0.0000

          k =-0.0904-0.4732 0.1161 (  2871 PWs)   bands (ev):

   -11.2682  -8.7542  -5.1190  -2.9675  -0.4419  -0.2311   3.6653   4.2640

     occupation numbers 
     1.0000   1.0000   1.0000   1.0000   0.0000   0.0000   0.0000   0.0000

          k =-0.0904-0.4732 0.1451 (  2867 PWs)   bands (ev):

   -11.2682  -8.7542  -5.1190  -2.9675  -0.4419  -0.2311   3.6790   4.2568

     occupation numbers 
     1.0000   1.0000   1.0000   1.0000   0.0000   0.0000   0.0000   0.0000

          k = 0.0000-0.4206 0.0000 (  2881 PWs)   bands (ev):

   -11.6956  -8.1826  -4.6124  -3.3795  -0.7234   0.1280   3.0870   5.2504

     occupation numbers 
     1.0000   1.0000   1.0000   1.0000   0.0000   0.0000   0.0000   0.0000

          k = 0.0000-0.4206 0.0290 (  2879 PWs)   bands (ev):

   -11.6956  -8.1826  -4.6124  -3.3795  -0.7234   0.1280   3.0930   5.2505

     occupation numbers 
     1.0000   1.0000   1.0000   1.0000   0.0000   0.0000   0.0000   0.0000

          k = 0.0000-0.4206 0.0580 (  2874 PWs)   bands (ev):

   -11.6956  -8.1826  -4.6124  -3.3795  -0.7234   0.1280   3.1098   4.5412

     occupation numbers 
     1.0000   1.0000   1.0000   1.0000   0.0000   0.0000   0.0000   0.0000

          k = 0.0000-0.4206 0.0870 (  2872 PWs)   bands (ev):

   -11.6956  -8.1826  -4.6124  -3.3795  -0.7234   0.1279   3.1335   4.3974

     occupation numbers 
     1.0000   1.0000   1.0000   1.0000   0.0000   0.0000   0.0000   0.0000

          k = 0.0000-0.4206 0.1161 (  2862 PWs)   bands (ev):

   -11.6956  -8.1826  -4.6124  -3.3795  -0.7234   0.1279   3.1573   4.2894

     occupation numbers 
     1.0000   1.0000   1.0000   1.0000   0.0000   0.0000   0.0000   0.0000

          k = 0.0000-0.4206 0.1451 (  2860 PWs)   bands (ev):

   -11.6956  -8.1826  -4.6124  -3.3795  -0.7233   0.1279   3.1726   4.2312

     occupation numbers 
     1.0000   1.0000   1.0000   1.0000   0.0000   0.0000   0.0000   0.0000

          k = 0.9044 0.0000 0.0000 (  2882 PWs)   bands (ev):

   -10.7804  -9.4013  -5.2110  -2.5099  -1.0557  -0.3247   4.1999   4.3674

     occupation numbers 
     1.0000   1.0000   1.0000   1.0001   0.0000   0.0000   0.0000   0.0000

          k = 0.9044 0.0000 0.0290 (  2876 PWs)   bands (ev):

   -10.7804  -9.4013  -5.2110  -2.5099  -1.0557  -0.3247   4.1994   4.3708

     occupation numbers 
     1.0000   1.0000   1.0000   1.0001   0.0000   0.0000   0.0000   0.0000

          k = 0.9044 0.0000 0.0580 (  2866 PWs)   bands (ev):

   -10.7804  -9.4013  -5.2110  -2.5099  -1.0557  -0.3247   4.1982   4.3803

     occupation numbers 
     1.0000   1.0000   1.0000   1.0001   0.0000   0.0000   0.0000   0.0000

          k = 0.9044 0.0000 0.0870 (  2854 PWs)   bands (ev):

   -10.7804  -9.4013  -5.2110  -2.5099  -1.0557  -0.3247   4.1967   4.3932

     occupation numbers 
     1.0000   1.0000   1.0000   1.0001   0.0000   0.0000   0.0000   0.0000

          k = 0.9044 0.0000 0.1161 (  2860 PWs)   bands (ev):

   -10.7804  -9.4013  -5.2110  -2.5099  -1.0557  -0.3247   4.1953   4.4055

     occupation numbers 
     1.0000   1.0000   1.0000   1.0001   0.0000   0.0000   0.0000   0.0000

          k = 0.9044 0.0000 0.1451 (  2862 PWs)   bands (ev):

   -10.7804  -9.4013  -5.2110  -2.5099  -1.0558  -0.3247   4.1944   4.4130

     occupation numbers 
     1.0000   1.0000   1.0000   1.0001   0.0000   0.0000   0.0000   0.0000

          k =-0.0000-0.5258 0.0000 (  2872 PWs)   bands (ev):

   -11.0122  -9.2010  -4.7694  -2.7274  -0.9193  -0.8571   3.9892   5.1087

     occupation numbers 
     1.0000   1.0000   1.0000   1.0000   0.0000   0.0000   0.0000   0.0000

          k =-0.0000-0.5258 0.0290 (  2874 PWs)   bands (ev):

   -11.0122  -9.2010  -4.7694  -2.7274  -0.9194  -0.8571   3.9941   5.1124

     occupation numbers 
     1.0000   1.0000   1.0000   1.0000   0.0000   0.0000   0.0000   0.0000

          k =-0.0000-0.5258 0.0580 (  2874 PWs)   bands (ev):

   -11.0122  -9.2011  -4.7694  -2.7274  -0.9193  -0.8571   4.0078   5.1224

     occupation numbers 
     1.0000   1.0000   1.0000   1.0000   0.0000   0.0000   0.0000   0.0000

          k =-0.0000-0.5258 0.0870 (  2866 PWs)   bands (ev):

   -11.0122  -9.2011  -4.7694  -2.7274  -0.9193  -0.8571   4.0268   5.1357

     occupation numbers 
     1.0000   1.0000   1.0000   1.0000   0.0000   0.0000   0.0000   0.0000

          k =-0.0000-0.5258 0.1161 (  2876 PWs)   bands (ev):

   -11.0122  -9.2011  -4.7694  -2.7274  -0.9193  -0.8572   4.0454   5.1484

     occupation numbers 
     1.0000   1.0000   1.0000   1.0000   0.0000   0.0000   0.0000   0.0000

          k =-0.0000-0.5258 0.1451 (  2871 PWs)   bands (ev):

   -11.0122  -9.2011  -4.7694  -2.7274  -0.9193  -0.8572   4.0571   5.1507

     occupation numbers 
     1.0000   1.0000   1.0000   1.0000   0.0000   0.0000   0.0000   0.0000

     the Fermi energy is    -1.7792 ev

!    total energy              =     -22.73999850 Ry
     Harris-Foulkes estimate   =     -22.73999851 Ry
     estimated scf accuracy    <          9.9E-11 Ry

     The total energy is the sum of the following terms:

     one-electron contribution =     -39.49678236 Ry
     hartree contribution      =      20.98670384 Ry
     xc contribution           =     -12.21464529 Ry
     ewald contribution        =       7.98458886 Ry
     smearing contrib. (-TS)   =       0.00013643 Ry

     convergence has been achieved in   9 iterations

     negative rho (up, down):  6.943E-07 0.000E+00

     Forces acting on atoms (cartesian axes, Ry/au):

     atom    1 type  1   force =     0.00000000    0.02177378    0.00000000
     atom    2 type  1   force =     0.00000000   -0.02177378    0.00000000
     The non-local contrib.  to forces
     atom    1 type  1   force =     0.00000000    0.02355100    0.00000000
     atom    2 type  1   force =     0.00000000   -0.02359361    0.00000000
     The ionic contribution  to forces
     atom    1 type  1   force =    -0.00000000    0.06637603   -0.00000000
     atom    2 type  1   force =     0.00000000   -0.06637603   -0.00000000
     The local contribution  to forces
     atom    1 type  1   force =     0.00000000   -0.06539409    0.00000000
     atom    2 type  1   force =     0.00000000    0.06540068    0.00000000
     The core correction contribution to forces
     atom    1 type  1   force =     0.00000000   -0.00277131   -0.00000000
     atom    2 type  1   force =    -0.00000000    0.00278402   -0.00000000
     The Hubbard contrib.    to forces
     atom    1 type  1   force =     0.00000000    0.00000000    0.00000000
     atom    2 type  1   force =     0.00000000    0.00000000    0.00000000
     The SCF correction term to forces
     atom    1 type  1   force =     0.00000000    0.00000049   -0.00000000
     atom    2 type  1   force =    -0.00000000   -0.00000050   -0.00000000

     Total force =     0.030793     Total SCF correction =     0.000001


     Computing stress (Cartesian axis) and pressure


     negative rho (up, down):  6.943E-07 0.000E+00
          total   stress  (Ry/bohr**3)                   (kbar)     P=   12.41
   0.00008783  -0.00000000   0.00000000         12.92     -0.00      0.00
   0.00000000   0.00016578   0.00000000          0.00     24.39      0.00
  -0.00000000   0.00000000  -0.00000049         -0.00      0.00     -0.07

     kinetic stress (kbar)    527.69      0.00      0.00
                                0.00    525.39      0.00
                                0.00      0.00    656.12

     local   stress (kbar)  -6541.49     -0.00     -0.00
                               -0.00  -6588.57     -0.00
                               -0.00     -0.00   6824.11

     nonloc. stress (kbar)    447.69      0.00     -0.00
                                0.00    454.59      0.00
                               -0.00      0.00    379.03

     hartree stress (kbar)   2913.52      0.00     -0.00
                                0.00   2919.89     -0.00
                               -0.00     -0.00  -2842.69

     exc-cor stress (kbar)    778.06     -0.00      0.00
                               -0.00    778.41     -0.00
                                0.00     -0.00    768.95

     corecor stress (kbar)  -1036.27     -0.00      0.00
                               -0.00  -1037.17      0.00
                                0.00      0.00  -1027.85

     ewald   stress (kbar)   2923.73      0.00     -0.00
                                0.00   2971.85     -0.00
                               -0.00     -0.00  -4757.74

     hubbard stress (kbar)      0.00      0.00      0.00
                                0.00      0.00      0.00
                                0.00      0.00      0.00

     london  stress (kbar)      0.00      0.00      0.00
                                0.00      0.00      0.00
                                0.00      0.00      0.00

     DFT-D3  stress (kbar)      0.00      0.00      0.00
                                0.00      0.00      0.00
                                0.00      0.00      0.00

     XDM     stress (kbar)      0.00      0.00      0.00
                                0.00      0.00      0.00
                                0.00      0.00      0.00

     dft-nl  stress (kbar)      0.00      0.00      0.00
                                0.00      0.00      0.00
                                0.00      0.00      0.00

     TS-vdW  stress (kbar)      0.00      0.00      0.00
                                0.00      0.00      0.00
                                0.00      0.00      0.00



     Writing output data file silicene.save/

     init_run     :      3.97s CPU      4.05s WALL (       1 calls)
     electrons    :     95.93s CPU     97.26s WALL (       1 calls)
     forces       :      2.00s CPU      2.04s WALL (       1 calls)
     stress       :      5.66s CPU      5.78s WALL (       1 calls)

     Called by init_run:
     wfcinit      :      2.99s CPU      3.02s WALL (       1 calls)
     wfcinit:atom :      0.13s CPU      0.14s WALL (     216 calls)
     wfcinit:wfcr :      2.39s CPU      2.41s WALL (     216 calls)
     potinit      :      0.17s CPU      0.17s WALL (       1 calls)
     hinit0       :      0.56s CPU      0.56s WALL (       1 calls)

     Called by electrons:
     c_bands      :     80.90s CPU     81.40s WALL (      10 calls)
     sum_band     :     13.01s CPU     13.65s WALL (      10 calls)
     v_of_rho     :      0.62s CPU      0.64s WALL (      10 calls)
     v_h          :      0.04s CPU      0.04s WALL (      10 calls)
     v_xc         :      0.70s CPU      0.72s WALL (      12 calls)
     newd         :      1.52s CPU      1.73s WALL (      10 calls)
     mix_rho      :      0.09s CPU      0.09s WALL (      10 calls)

     Called by c_bands:
     init_us_2    :      4.03s CPU      4.05s WALL (    4968 calls)
     cegterg      :     67.91s CPU     68.31s WALL (    2160 calls)

     Called by sum_band:
     sum_band:bec :      0.03s CPU      0.03s WALL (    2160 calls)
     addusdens    :      1.56s CPU      2.14s WALL (      10 calls)

     Called by *egterg:
     h_psi        :     48.87s CPU     49.15s WALL (    8182 calls)
     s_psi        :      7.68s CPU      7.75s WALL (    8182 calls)
     g_psi        :      0.52s CPU      0.53s WALL (    5806 calls)
     cdiaghg      :      0.97s CPU      1.00s WALL (    7750 calls)
     cegterg:over :      4.80s CPU      4.82s WALL (    5806 calls)
     cegterg:upda :      3.22s CPU      3.24s WALL (    5806 calls)
     cegterg:last :      1.79s CPU      1.80s WALL (    2220 calls)

     Called by h_psi:
     h_psi:pot    :     48.60s CPU     48.87s WALL (    8182 calls)
     h_psi:calbec :      8.57s CPU      8.62s WALL (    8182 calls)
     vloc_psi     :     32.33s CPU     32.50s WALL (    8182 calls)
     add_vuspsi   :      7.66s CPU      7.72s WALL (    8182 calls)

     General routines
     calbec       :     12.81s CPU     12.89s WALL (   11422 calls)
     fft          :      0.44s CPU      0.44s WALL (     154 calls)
     ffts         :      0.01s CPU      0.01s WALL (      20 calls)
     fftw         :     30.89s CPU     31.07s WALL (  109486 calls)
     interpolate  :      0.04s CPU      0.04s WALL (      10 calls)

     Parallel routines

     PWSCF        :   1m48.15s CPU   1m49.80s WALL


   This run was terminated on:  21:40:33  22Sep2023            

=------------------------------------------------------------------------------=
   JOB DONE.
=------------------------------------------------------------------------------=
