### Running on host: LAPTOP-C0A2DPIS

     Program PWSCF v.6.4.1 starts on 22Sep2023 at 21:44:54 

     This program is part of the open-source Quantum ESPRESSO suite
     for quantum simulation of materials; please cite
         "P. Giannozzi et al., J. Phys.:Condens. Matter 21 395502 (2009);
         "P. Giannozzi et al., J. Phys.:Condens. Matter 29 465901 (2017);
          URL http://www.quantum-espresso.org", 
     in publications or presentations arising from this work. More details at
     http://www.quantum-espresso.org/quote

     Parallel version (MPI), running on     1 processors

     MPI processes distributed on     1 nodes
     Reading input from silicene_scf_kpoints-6.in

     Current dimensions of program PWSCF are:
     Max number of different atomic species (ntypx) = 10
     Max number of k-points (npk) =  40000
     Max angular momentum in pseudopotentials (lmaxx) =  3
     Message from routine read_upf::
     Pseudo file Si.pbe-n-rrkjus_psl.1.0.0.UPF has been fixed on the fly.
To avoid this message in the future, permanently fix 
 your pseudo files following these instructions: 
https://gitlab.com/QEF/q-e/blob/master/upftools/how_to_fix_upf.md

     Subspace diagonalization in iterative solution of the eigenvalue problem:
     a serial algorithm will be used

     Message from routine setup:
     DEPRECATED: symmetry with ibrav=0, use correct ibrav instead

     G-vector sticks info
     --------------------
     sticks:   dense  smooth     PW     G-vecs:    dense   smooth      PW
     Sum         859     433    151                64713    22975    4467



     bravais-lattice index     =            0
     lattice parameter (alat)  =       7.2375  a.u.
     unit-cell volume          =    1032.2806 (a.u.)^3
     number of atoms/cell      =            2
     number of atomic types    =            1
     number of electrons       =         8.00
     number of Kohn-Sham states=            8
     kinetic-energy cutoff     =      30.0000  Ry
     charge density cutoff     =     240.0000  Ry
     convergence threshold     =      4.0E-10
     mixing beta               =       0.4000
     number of iterations used =            8  plain     mixing
     Exchange-correlation      = PBE ( 1  4  3  4 0 0)

     celldm(1)=   7.237514  celldm(2)=   0.000000  celldm(3)=   0.000000
     celldm(4)=   0.000000  celldm(5)=   0.000000  celldm(6)=   0.000000

     crystal axes: (cart. coord. in units of alat)
               a(1) = (   0.502620  -0.864507   0.000000 )  
               a(2) = (   0.502620   0.864507   0.000000 )  
               a(3) = (   0.000000   0.000000   3.133218 )  

     reciprocal axes: (cart. coord. in units 2 pi/alat)
               b(1) = (  0.994786 -0.578364  0.000000 )  
               b(2) = (  0.994786  0.578364 -0.000000 )  
               b(3) = ( -0.000000  0.000000  0.319161 )  


     PseudoPot. # 1 for Si read from file:
     /home/meyn/q-e-qe-7.1/pseudo/Si.pbe-n-rrkjus_psl.1.0.0.UPF
     MD5 check sum: 56671f82560c68743c116fe4c72cdc4c
     Pseudo is Ultrasoft + core correction, Zval =  4.0
     Generated using "atomic" code by A. Dal Corso v.5.1.2
     Using radial grid of 1141 points,  6 beta functions with: 
                l(1) =   0
                l(2) =   0
                l(3) =   1
                l(4) =   1
                l(5) =   2
                l(6) =   2
     Q(r) pseudized with 0 coefficients 


     atomic species   valence    mass     pseudopotential
        Si             4.00    28.08550     Si( 1.00)

      4 Sym. Ops. (no inversion) found


                                    s                        frac. trans.

      isym =  1     identity                                     

 cryst.   s( 1) = (     1          0          0      )
                  (     0          1          0      )
                  (     0          0          1      )

 cart.    s( 1) = (  1.0000000  0.0000000  0.0000000 )
                  (  0.0000000  1.0000000  0.0000000 )
                  (  0.0000000  0.0000000  1.0000000 )


      isym =  2     180 deg rotation - cart. axis [0,1,0]        

 cryst.   s( 2) = (     0         -1          0      )
                  (    -1          0          0      )
                  (     0          0         -1      )

 cart.    s( 2) = ( -1.0000000  0.0000000  0.0000000 )
                  (  0.0000000  1.0000000  0.0000000 )
                  (  0.0000000  0.0000000 -1.0000000 )


      isym =  3     inv. 180 deg rotation - cart. axis [0,0,1]   

 cryst.   s( 3) = (     1          0          0      )
                  (     0          1          0      )
                  (     0          0         -1      )

 cart.    s( 3) = (  1.0000000  0.0000000  0.0000000 )
                  (  0.0000000  1.0000000  0.0000000 )
                  (  0.0000000  0.0000000 -1.0000000 )


      isym =  4     inv. 180 deg rotation - cart. axis [1,0,0]   

 cryst.   s( 4) = (     0         -1          0      )
                  (    -1          0          0      )
                  (     0          0          1      )

 cart.    s( 4) = ( -1.0000000  0.0000000  0.0000000 )
                  (  0.0000000  1.0000000  0.0000000 )
                  (  0.0000000  0.0000000  1.0000000 )


   Cartesian axes

     site n.     atom                  positions (alat units)
         1           Si  tau(   1) = (   0.0000000   0.0000000   0.0000000  )
         2           Si  tau(   2) = (   0.5026205   0.2939324   0.0000000  )

   Crystallographic axes

     site n.     atom                  positions (cryst. coord.)
         1           Si  tau(   1) = (  0.0000000  0.0000000  0.0000000  )
         2           Si  tau(   2) = (  0.3300000  0.6700000  0.0000000  )

     number of k points=    13  Marzari-Vanderbilt smearing, width (Ry)=  0.0147
                       cart. coord. in units 2pi/alat
        k(    1) = (   0.0000000   0.0000000   0.0000000), wk =   0.0555556
        k(    2) = (   0.1657977   0.0963940   0.0000000), wk =   0.2222222
        k(    3) = (   0.3315955   0.1927881   0.0000000), wk =   0.2222222
        k(    4) = (  -0.4973932  -0.2891821   0.0000000), wk =   0.1111111
        k(    5) = (   0.3315955   0.0000000   0.0000000), wk =   0.1111111
        k(    6) = (   0.4973932   0.0963940   0.0000000), wk =   0.2222222
        k(    7) = (  -0.3315955  -0.3855761   0.0000000), wk =   0.2222222
        k(    8) = (  -0.1657977  -0.2891821   0.0000000), wk =   0.2222222
        k(    9) = (   0.0000000  -0.1927881   0.0000000), wk =   0.1111111
        k(   10) = (   0.6631909   0.0000000   0.0000000), wk =   0.1111111
        k(   11) = (  -0.1657977  -0.4819702   0.0000000), wk =   0.2222222
        k(   12) = (  -0.0000000  -0.3855761   0.0000000), wk =   0.1111111
        k(   13) = (  -0.9947864   0.0000000   0.0000000), wk =   0.0555556

                       cryst. coord.
        k(    1) = (   0.0000000   0.0000000   0.0000000), wk =   0.0555556
        k(    2) = (   0.0000000   0.1666667   0.0000000), wk =   0.2222222
        k(    3) = (   0.0000000   0.3333333   0.0000000), wk =   0.2222222
        k(    4) = (   0.0000000  -0.5000000   0.0000000), wk =   0.1111111
        k(    5) = (   0.1666667   0.1666667   0.0000000), wk =   0.1111111
        k(    6) = (   0.1666667   0.3333333   0.0000000), wk =   0.2222222
        k(    7) = (   0.1666667  -0.5000000   0.0000000), wk =   0.2222222
        k(    8) = (   0.1666667  -0.3333333   0.0000000), wk =   0.2222222
        k(    9) = (   0.1666667  -0.1666667   0.0000000), wk =   0.1111111
        k(   10) = (   0.3333333   0.3333333   0.0000000), wk =   0.1111111
        k(   11) = (   0.3333333  -0.5000000   0.0000000), wk =   0.2222222
        k(   12) = (   0.3333333  -0.3333333   0.0000000), wk =   0.1111111
        k(   13) = (  -0.5000000  -0.5000000   0.0000000), wk =   0.0555556

     Dense  grid:    64713 G-vectors     FFT dimensions: (  36,  36, 120)

     Smooth grid:    22975 G-vectors     FFT dimensions: (  25,  25,  80)

     Dynamical RAM for                 wfc:       0.35 MB

     Dynamical RAM for     wfc (w. buffer):       4.89 MB

     Dynamical RAM for           str. fact:       0.99 MB

     Dynamical RAM for           local pot:       0.00 MB

     Dynamical RAM for          nlocal pot:       1.57 MB

     Dynamical RAM for                qrad:       1.43 MB

     Dynamical RAM for          rho,v,vnew:       6.52 MB

     Dynamical RAM for               rhoin:       2.17 MB

     Dynamical RAM for            rho*nmix:      15.80 MB

     Dynamical RAM for           G-vectors:       3.88 MB

     Dynamical RAM for          h,s,v(r/c):       0.05 MB

     Dynamical RAM for          <psi|beta>:       0.00 MB

     Dynamical RAM for                 psi:       1.40 MB

     Dynamical RAM for                hpsi:       1.40 MB

     Dynamical RAM for                spsi:       1.40 MB

     Dynamical RAM for      wfcinit/wfcrot:       0.70 MB

     Dynamical RAM for           addusdens:     185.64 MB

     Dynamical RAM for          addusforce:     188.12 MB

     Dynamical RAM for         addusstress:     198.48 MB

     Estimated static dynamical RAM per process >      45.17 MB

     Estimated max dynamical RAM per process >     243.64 MB

     Initial potential from superposition of free atoms

     starting charge    7.99888, renormalised to    8.00000

     negative rho (up, down):  3.014E-06 0.000E+00
     Starting wfcs are    8 randomized atomic wfcs

     total cpu time spent up to now is        1.8 secs

     Self-consistent Calculation

     iteration #  1     ecut=    30.00 Ry     beta= 0.40
     Davidson diagonalization with overlap
     ethr =  1.00E-02,  avg # of iterations =  4.8

     Threshold (ethr) on eigenvalues was too large:
     Diagonalizing with lowered threshold

     Davidson diagonalization with overlap
     ethr =  9.26E-04,  avg # of iterations =  1.0

     negative rho (up, down):  1.969E-06 0.000E+00

     total cpu time spent up to now is        3.6 secs

     total energy              =     -22.73969984 Ry
     Harris-Foulkes estimate   =     -22.75976762 Ry
     estimated scf accuracy    <       0.07304650 Ry

     iteration #  2     ecut=    30.00 Ry     beta= 0.40
     Davidson diagonalization with overlap
     ethr =  9.13E-04,  avg # of iterations =  1.0

     negative rho (up, down):  4.096E-06 0.000E+00

     total cpu time spent up to now is        4.6 secs

     total energy              =     -22.73629217 Ry
     Harris-Foulkes estimate   =     -22.74204667 Ry
     estimated scf accuracy    <       0.01741301 Ry

     iteration #  3     ecut=    30.00 Ry     beta= 0.40
     Davidson diagonalization with overlap
     ethr =  2.18E-04,  avg # of iterations =  3.2

     negative rho (up, down):  3.110E-06 0.000E+00

     total cpu time spent up to now is        5.6 secs

     total energy              =     -22.73813067 Ry
     Harris-Foulkes estimate   =     -22.73833021 Ry
     estimated scf accuracy    <       0.00063705 Ry

     iteration #  4     ecut=    30.00 Ry     beta= 0.40
     Davidson diagonalization with overlap
     ethr =  7.96E-06,  avg # of iterations =  5.5

     negative rho (up, down):  2.427E-06 0.000E+00

     total cpu time spent up to now is        6.9 secs

     total energy              =     -22.73820993 Ry
     Harris-Foulkes estimate   =     -22.73831410 Ry
     estimated scf accuracy    <       0.00016600 Ry

     iteration #  5     ecut=    30.00 Ry     beta= 0.40
     Davidson diagonalization with overlap
     ethr =  2.08E-06,  avg # of iterations =  2.5

     negative rho (up, down):  2.088E-06 0.000E+00

     total cpu time spent up to now is        7.9 secs

     total energy              =     -22.73824448 Ry
     Harris-Foulkes estimate   =     -22.73824828 Ry
     estimated scf accuracy    <       0.00000769 Ry

     iteration #  6     ecut=    30.00 Ry     beta= 0.40
     Davidson diagonalization with overlap
     ethr =  9.61E-08,  avg # of iterations =  2.0

     negative rho (up, down):  1.978E-06 0.000E+00

     total cpu time spent up to now is        9.0 secs

     total energy              =     -22.73824576 Ry
     Harris-Foulkes estimate   =     -22.73824570 Ry
     estimated scf accuracy    <       0.00000017 Ry

     iteration #  7     ecut=    30.00 Ry     beta= 0.40
     Davidson diagonalization with overlap
     ethr =  2.16E-09,  avg # of iterations =  2.3

     negative rho (up, down):  1.942E-06 0.000E+00

     total cpu time spent up to now is        9.9 secs

     total energy              =     -22.73824578 Ry
     Harris-Foulkes estimate   =     -22.73824579 Ry
     estimated scf accuracy    <       0.00000004 Ry

     iteration #  8     ecut=    30.00 Ry     beta= 0.40
     Davidson diagonalization with overlap
     ethr =  4.54E-10,  avg # of iterations =  2.0

     negative rho (up, down):  1.936E-06 0.000E+00

     total cpu time spent up to now is       10.8 secs

     total energy              =     -22.73824578 Ry
     Harris-Foulkes estimate   =     -22.73824578 Ry
     estimated scf accuracy    <          2.8E-09 Ry

     iteration #  9     ecut=    30.00 Ry     beta= 0.40
     Davidson diagonalization with overlap
     ethr =  3.55E-11,  avg # of iterations =  2.1

     negative rho (up, down):  1.950E-06 0.000E+00

     total cpu time spent up to now is       11.8 secs

     End of self-consistent calculation

          k = 0.0000 0.0000 0.0000 (  2867 PWs)   bands (ev):

   -13.2180  -4.8610  -3.4816  -3.3431   0.1631   0.8535   1.1126   1.3579

     occupation numbers 
     1.0000   1.0000   1.0000   1.0000   0.0000   0.0000   0.0000   0.0000

          k = 0.1658 0.0964 0.0000 (  2880 PWs)   bands (ev):

   -12.8922  -5.1881  -4.5432  -3.9000   0.1909   1.7220   2.1573   2.2744

     occupation numbers 
     1.0000   1.0000   1.0000   1.0000   0.0000   0.0000   0.0000   0.0000

          k = 0.3316 0.1928 0.0000 (  2871 PWs)   bands (ev):

   -11.9582  -7.6961  -4.5407  -3.6320  -0.6075   0.5825   2.7995   4.7421

     occupation numbers 
     1.0000   1.0000   1.0000   1.0000   0.0000   0.0000   0.0000   0.0000

          k =-0.4974-0.2892 0.0000 (  2876 PWs)   bands (ev):

   -10.9874  -9.2317  -4.7904  -2.6921  -0.9221  -0.9152   4.2420   4.8301

     occupation numbers 
     1.0000   1.0000   1.0000   1.0000   0.0000   0.0000   0.0000   0.0000

          k = 0.3316 0.0000 0.0000 (  2871 PWs)   bands (ev):

   -12.2631  -6.8162  -5.0059  -3.9288   1.2143   1.3776   1.7706   2.4413

     occupation numbers 
     1.0000   1.0000   1.0000   1.0000   0.0000   0.0000   0.0000   0.0000

          k = 0.4974 0.0964 0.0000 (  2859 PWs)   bands (ev):

   -11.1251  -8.7440  -5.7895  -2.8209  -0.4888   0.9136   3.4236   3.8045

     occupation numbers 
     1.0000   1.0000   1.0000   1.0000   0.0000   0.0000   0.0000   0.0000

          k =-0.3316-0.3856 0.0000 (  2851 PWs)   bands (ev):

   -11.0951  -8.8008  -5.7544  -2.7944  -0.5347   0.9048   3.4607   3.8236

     occupation numbers 
     1.0000   1.0000   1.0000   1.0000   0.0000   0.0000   0.0000   0.0000

          k =-0.1658-0.2892 0.0000 (  2869 PWs)   bands (ev):

   -12.2420  -6.9102  -4.9118  -3.9100   1.3076   1.3169   1.5609   2.4526

     occupation numbers 
     1.0000   1.0000   1.0000   1.0000   0.0000   0.0000   0.0000   0.0000

          k = 0.0000-0.1928 0.0000 (  2877 PWs)   bands (ev):

   -12.8853  -5.2422  -4.5370  -3.8445   0.2078   1.7263   2.0167   2.3398

     occupation numbers 
     1.0000   1.0000   1.0000   1.0000   0.0000   0.0000   0.0000   0.0000

          k = 0.6632 0.0000 0.0000 (  2826 PWs)   bands (ev):

    -9.9791  -9.8209  -6.6274  -1.7035  -1.5756   2.4627   3.5609   4.0304

     occupation numbers 
     1.0000   1.0000   1.0000   0.7245   0.2755   0.0000   0.0000   0.0000

          k =-0.1658-0.4820 0.0000 (  2861 PWs)   bands (ev):

   -11.0450  -8.8695  -5.7452  -2.7516  -0.5865   0.8763   3.4549   3.8470

     occupation numbers 
     1.0000   1.0000   1.0000   1.0000   0.0000   0.0000   0.0000   0.0000

          k =-0.0000-0.3856 0.0000 (  2885 PWs)   bands (ev):

   -11.9224  -7.7596  -4.5256  -3.6004  -0.6183   0.5380   2.8170   4.6732

     occupation numbers 
     1.0000   1.0000   1.0000   1.0000   0.0000   0.0000   0.0000   0.0000

          k =-0.9948 0.0000 0.0000 (  2888 PWs)   bands (ev):

   -10.8584  -9.3848  -4.7874  -2.5850  -1.0349  -0.9450   4.3110   4.8108

     occupation numbers 
     1.0000   1.0000   1.0000   1.0000   0.0000   0.0000   0.0000   0.0000

     the Fermi energy is    -1.6155 ev

!    total energy              =     -22.73824577 Ry
     Harris-Foulkes estimate   =     -22.73824578 Ry
     estimated scf accuracy    <          1.8E-10 Ry

     The total energy is the sum of the following terms:

     one-electron contribution =     -39.49614022 Ry
     hartree contribution      =      20.98929902 Ry
     xc contribution           =     -12.21557182 Ry
     ewald contribution        =       7.98458886 Ry
     smearing contrib. (-TS)   =      -0.00042161 Ry

     convergence has been achieved in   9 iterations

     negative rho (up, down):  1.950E-06 0.000E+00

     Forces acting on atoms (cartesian axes, Ry/au):

     atom    1 type  1   force =     0.00000000    0.01896395    0.00000000
     atom    2 type  1   force =     0.00000000   -0.01896395    0.00000000
     The non-local contrib.  to forces
     atom    1 type  1   force =     0.00000000    0.02404728    0.00000000
     atom    2 type  1   force =     0.00000000   -0.02408995    0.00000000
     The ionic contribution  to forces
     atom    1 type  1   force =    -0.00000000    0.06637603   -0.00000000
     atom    2 type  1   force =     0.00000000   -0.06637603   -0.00000000
     The local contribution  to forces
     atom    1 type  1   force =     0.00000000   -0.06864209    0.00000000
     atom    2 type  1   force =     0.00000000    0.06864867    0.00000000
     The core correction contribution to forces
     atom    1 type  1   force =     0.00000000   -0.00282821    0.00000000
     atom    2 type  1   force =    -0.00000000    0.00284049    0.00000000
     The Hubbard contrib.    to forces
     atom    1 type  1   force =     0.00000000    0.00000000    0.00000000
     atom    2 type  1   force =     0.00000000    0.00000000    0.00000000
     The SCF correction term to forces
     atom    1 type  1   force =    -0.00000000   -0.00000094   -0.00000000
     atom    2 type  1   force =     0.00000000    0.00000098   -0.00000000

     Total force =     0.026819     Total SCF correction =     0.000001


     Computing stress (Cartesian axis) and pressure


     negative rho (up, down):  1.950E-06 0.000E+00
          total   stress  (Ry/bohr**3)                   (kbar)     P=   12.58
   0.00009677   0.00000000   0.00000000         14.24      0.00      0.00
   0.00000000   0.00016019   0.00000000          0.00     23.57      0.00
   0.00000000   0.00000000  -0.00000045          0.00      0.00     -0.07

     kinetic stress (kbar)    529.10      0.00      0.00
                                0.00    525.51     -0.00
                                0.00      0.00    656.16

     local   stress (kbar)  -6541.26     -0.00      0.00
                               -0.00  -6589.72      0.00
                                0.00      0.00   6824.53

     nonloc. stress (kbar)    447.51     -0.00      0.00
                               -0.00    454.41     -0.00
                                0.00      0.00    378.54

     hartree stress (kbar)   2913.42      0.00      0.00
                                0.00   2920.31     -0.00
                                0.00     -0.00  -2842.66

     exc-cor stress (kbar)    778.01      0.00     -0.00
                                0.00    778.38     -0.00
                               -0.00     -0.00    768.91

     corecor stress (kbar)  -1036.28     -0.00      0.00
                               -0.00  -1037.18     -0.00
                                0.00     -0.00  -1027.81

     ewald   stress (kbar)   2923.73      0.00     -0.00
                                0.00   2971.85     -0.00
                               -0.00     -0.00  -4757.74

     hubbard stress (kbar)      0.00      0.00      0.00
                                0.00      0.00      0.00
                                0.00      0.00      0.00

     london  stress (kbar)      0.00      0.00      0.00
                                0.00      0.00      0.00
                                0.00      0.00      0.00

     DFT-D3  stress (kbar)      0.00      0.00      0.00
                                0.00      0.00      0.00
                                0.00      0.00      0.00

     XDM     stress (kbar)      0.00      0.00      0.00
                                0.00      0.00      0.00
                                0.00      0.00      0.00

     dft-nl  stress (kbar)      0.00      0.00      0.00
                                0.00      0.00      0.00
                                0.00      0.00      0.00

     TS-vdW  stress (kbar)      0.00      0.00      0.00
                                0.00      0.00      0.00
                                0.00      0.00      0.00



     Writing output data file silicene.save/

     init_run     :      1.24s CPU      1.32s WALL (       1 calls)
     electrons    :      9.53s CPU     10.00s WALL (       1 calls)
     forces       :      0.64s CPU      0.66s WALL (       1 calls)
     stress       :      1.87s CPU      1.98s WALL (       1 calls)

     Called by init_run:
     wfcinit      :      0.15s CPU      0.16s WALL (       1 calls)
     wfcinit:atom :      0.00s CPU      0.01s WALL (      13 calls)
     wfcinit:wfcr :      0.12s CPU      0.13s WALL (      13 calls)
     potinit      :      0.21s CPU      0.21s WALL (       1 calls)
     hinit0       :      0.70s CPU      0.72s WALL (       1 calls)

     Called by electrons:
     c_bands      :      5.04s CPU      5.09s WALL (      10 calls)
     sum_band     :      2.39s CPU      2.63s WALL (      10 calls)
     v_of_rho     :      0.62s CPU      0.64s WALL (      10 calls)
     v_h          :      0.04s CPU      0.04s WALL (      10 calls)
     v_xc         :      0.69s CPU      0.72s WALL (      12 calls)
     newd         :      1.58s CPU      1.77s WALL (      10 calls)
     mix_rho      :      0.08s CPU      0.09s WALL (      10 calls)

     Called by c_bands:
     init_us_2    :      0.25s CPU      0.25s WALL (     299 calls)
     cegterg      :      4.24s CPU      4.29s WALL (     130 calls)

     Called by sum_band:
     sum_band:bec :      0.00s CPU      0.00s WALL (     130 calls)
     addusdens    :      1.57s CPU      1.80s WALL (      10 calls)

     Called by *egterg:
     h_psi        :      3.04s CPU      3.08s WALL (     485 calls)
     s_psi        :      0.48s CPU      0.49s WALL (     485 calls)
     g_psi        :      0.03s CPU      0.03s WALL (     342 calls)
     cdiaghg      :      0.06s CPU      0.06s WALL (     459 calls)
     cegterg:over :      0.29s CPU      0.29s WALL (     342 calls)
     cegterg:upda :      0.20s CPU      0.20s WALL (     342 calls)
     cegterg:last :      0.12s CPU      0.12s WALL (     135 calls)

     Called by h_psi:
     h_psi:pot    :      3.02s CPU      3.06s WALL (     485 calls)
     h_psi:calbec :      0.52s CPU      0.53s WALL (     485 calls)
     vloc_psi     :      2.01s CPU      2.05s WALL (     485 calls)
     add_vuspsi   :      0.48s CPU      0.48s WALL (     485 calls)

     General routines
     calbec       :      0.80s CPU      0.81s WALL (     680 calls)
     fft          :      0.43s CPU      0.44s WALL (     154 calls)
     ffts         :      0.01s CPU      0.01s WALL (      20 calls)
     fftw         :      1.95s CPU      1.99s WALL (    6550 calls)
     interpolate  :      0.04s CPU      0.04s WALL (      10 calls)

     Parallel routines

     PWSCF        :     13.79s CPU     14.50s WALL


   This run was terminated on:  21:45: 9  22Sep2023            

=------------------------------------------------------------------------------=
   JOB DONE.
=------------------------------------------------------------------------------=
