
     Program BANDS v.6.4.1 starts on 26Sep2023 at  0:59:27 

     This program is part of the open-source Quantum ESPRESSO suite
     for quantum simulation of materials; please cite
         "P. Giannozzi et al., J. Phys.:Condens. Matter 21 395502 (2009);
         "P. Giannozzi et al., J. Phys.:Condens. Matter 29 465901 (2017);
          URL http://www.quantum-espresso.org", 
     in publications or presentations arising from this work. More details at
     http://www.quantum-espresso.org/quote

     Parallel version (MPI), running on     1 processors

     MPI processes distributed on     1 nodes

     Reading data from directory:
     ./tmp/silicene.save/
     Message from routine read_upf::
     Pseudo file Si.pbe-n-rrkjus_psl.1.0.0.UPF has been fixed on the fly.
To avoid this message in the future, permanently fix 
 your pseudo files following these instructions: 
https://gitlab.com/QEF/q-e/blob/master/upftools/how_to_fix_upf.md

     IMPORTANT: XC functional enforced from input :
     Exchange-correlation      = PBE ( 1  4  3  4 0 0)
     Any further DFT definition will be discarded
     Please, verify this is what you really want


     G-vector sticks info
     --------------------
     sticks:   dense  smooth     PW     G-vecs:    dense   smooth      PW
     Sum         913     913    301                67107    67107   12857


     negative rho (up, down):  2.048E-06 0.000E+00
     high-symmetry point:  0.0000 0.0000 0.0000   x coordinate   0.0000
     high-symmetry point:  0.5000 0.2887 0.0000   x coordinate   0.5774
     high-symmetry point:  0.6667 0.0000 0.0000   x coordinate   0.9107
     high-symmetry point:  0.0000 0.0000 0.0000   x coordinate   1.5774

     Plottable bands (eV) written to file silicene_bands.dat.gnu
     Bands written to file silicene_bands.dat

 **************************************************************************

                    xk=(   0.00000,   0.00000,   0.00000  )

     point group C_2v (mm2) 
     there are  4 classes
     the character table:

       E     C2    s_v   s_v' 
A_1    1.00  1.00  1.00  1.00
A_2    1.00  1.00 -1.00 -1.00
B_1    1.00 -1.00  1.00 -1.00
B_2    1.00 -1.00 -1.00  1.00

     the symmetry operations in each class and the name of the first element:

     E        1
                                                                 
     C2       2
                                                                 
     s_v      3
                                                                 
     s_v'     4
                                                                 

     Band symmetry, C_2v (mm2)  point group:

     e(  1 -  1) =    -13.11323  eV     1   --> A_1  D_1  S_1  
     e(  2 -  2) =     -4.81897  eV     1   --> B_2  D_4  S_4  
     e(  3 -  3) =     -3.55678  eV     1   --> A_1  D_1  S_1  
     e(  4 -  4) =     -3.55593  eV     1   --> B_1  D_3  S_3  
     e(  5 -  5) =     -0.43632  eV     1   --> A_1  D_1  S_1  
     e(  6 -  6) =      0.81034  eV     1   --> B_1  D_3  S_3  
     e(  7 -  7) =      0.81080  eV     1   --> A_1  D_1  S_1  
     e(  8 -  8) =      1.32136  eV     1   --> A_1  D_1  S_1  

 **************************************************************************

 **************************************************************************

                    xk=(   0.00714,   0.00412,   0.00000  )

     point group C_s (m)    
     there are  2 classes
     the character table:

       E     s    
A'     1.00  1.00
A''    1.00 -1.00

     the symmetry operations in each class and the name of the first element:

     E        1
                                                                 
     s        2
                                                                 

     Band symmetry, C_s (m)     point group:

     e(  1 -  1) =    -13.11265  eV     1   --> A'             
     e(  2 -  2) =     -4.81840  eV     1   --> A''            
     e(  3 -  3) =     -3.56159  eV     1   --> A'             
     e(  4 -  4) =     -3.55759  eV     1   --> A'             
     e(  5 -  5) =     -0.43159  eV     1   --> A'             
     e(  6 -  6) =      0.81007  eV     1   --> A'             
     e(  7 -  7) =      0.81292  eV     1   --> A'             
     e(  8 -  8) =      1.32201  eV     1   --> A'             

 **************************************************************************

 **************************************************************************

                    xk=(   0.01429,   0.00825,   0.00000  )

     Band symmetry, C_s (m)     point group:

     e(  1 -  1) =    -13.11090  eV     1   --> A'             
     e(  2 -  2) =     -4.81669  eV     1   --> A''            
     e(  3 -  3) =     -3.57770  eV     1   --> A'             
     e(  4 -  4) =     -3.56079  eV     1   --> A'             
     e(  5 -  5) =     -0.41755  eV     1   --> A'             
     e(  6 -  6) =      0.80900  eV     1   --> A'             
     e(  7 -  7) =      0.81959  eV     1   --> A'             
     e(  8 -  8) =      1.32396  eV     1   --> A'             

 **************************************************************************

 **************************************************************************

                    xk=(   0.02143,   0.01237,   0.00000  )

     Band symmetry, C_s (m)     point group:

     e(  1 -  1) =    -13.10799  eV     1   --> A'             
     e(  2 -  2) =     -4.81385  eV     1   --> A''            
     e(  3 -  3) =     -3.60421  eV     1   --> A'             
     e(  4 -  4) =     -3.56605  eV     1   --> A'             
     e(  5 -  5) =     -0.39468  eV     1   --> A'             
     e(  6 -  6) =      0.80741  eV     1   --> A'             
     e(  7 -  7) =      0.83070  eV     1   --> A'             
     e(  8 -  8) =      1.32722  eV     1   --> A'             

 **************************************************************************

 **************************************************************************

                    xk=(   0.02857,   0.01650,   0.00000  )

     Band symmetry, C_s (m)     point group:

     e(  1 -  1) =    -13.10391  eV     1   --> A'             
     e(  2 -  2) =     -4.80987  eV     1   --> A''            
     e(  3 -  3) =     -3.64058  eV     1   --> A'             
     e(  4 -  4) =     -3.57336  eV     1   --> A'             
     e(  5 -  5) =     -0.36376  eV     1   --> A'             
     e(  6 -  6) =      0.80559  eV     1   --> A'             
     e(  7 -  7) =      0.84619  eV     1   --> A'             
     e(  8 -  8) =      1.33178  eV     1   --> A'             

 **************************************************************************

 **************************************************************************

                    xk=(   0.03572,   0.02062,   0.00000  )

     Band symmetry, C_s (m)     point group:

     e(  1 -  1) =    -13.09866  eV     1   --> A'             
     e(  2 -  2) =     -4.80476  eV     1   --> A''            
     e(  3 -  3) =     -3.68613  eV     1   --> A'             
     e(  4 -  4) =     -3.58268  eV     1   --> A'             
     e(  5 -  5) =     -0.32584  eV     1   --> A'             
     e(  6 -  6) =      0.80399  eV     1   --> A'             
     e(  7 -  7) =      0.86603  eV     1   --> A'             
     e(  8 -  8) =      1.33764  eV     1   --> A'             

 **************************************************************************

 **************************************************************************

                    xk=(   0.04286,   0.02474,   0.00000  )

     Band symmetry, C_s (m)     point group:

     e(  1 -  1) =    -13.09225  eV     1   --> A'             
     e(  2 -  2) =     -4.79851  eV     1   --> A''            
     e(  3 -  3) =     -3.74011  eV     1   --> A'             
     e(  4 -  4) =     -3.59394  eV     1   --> A'             
     e(  5 -  5) =     -0.28220  eV     1   --> A'             
     e(  6 -  6) =      0.80322  eV     1   --> A'             
     e(  7 -  7) =      0.89015  eV     1   --> A'             
     e(  8 -  8) =      1.34480  eV     1   --> A'             

 **************************************************************************

 **************************************************************************

                    xk=(   0.05000,   0.02887,   0.00000  )

     Band symmetry, C_s (m)     point group:

     e(  1 -  1) =    -13.08468  eV     1   --> A'             
     e(  2 -  2) =     -4.79112  eV     1   --> A''            
     e(  3 -  3) =     -3.80171  eV     1   --> A'             
     e(  4 -  4) =     -3.60706  eV     1   --> A'             
     e(  5 -  5) =     -0.23438  eV     1   --> A'             
     e(  6 -  6) =      0.80412  eV     1   --> A'             
     e(  7 -  7) =      0.91848  eV     1   --> A'             
     e(  8 -  8) =      1.35327  eV     1   --> A'             

 **************************************************************************

 **************************************************************************

                    xk=(   0.05714,   0.03299,   0.00000  )

     Band symmetry, C_s (m)     point group:

     e(  1 -  1) =    -13.07594  eV     1   --> A'             
     e(  2 -  2) =     -4.78261  eV     1   --> A''            
     e(  3 -  3) =     -3.87013  eV     1   --> A'             
     e(  4 -  4) =     -3.62197  eV     1   --> A'             
     e(  5 -  5) =     -0.18414  eV     1   --> A'             
     e(  6 -  6) =      0.80774  eV     1   --> A'             
     e(  7 -  7) =      0.95093  eV     1   --> A'             
     e(  8 -  8) =      1.36303  eV     1   --> A'             

 **************************************************************************

 **************************************************************************

                    xk=(   0.06429,   0.03712,   0.00000  )

     Band symmetry, C_s (m)     point group:

     e(  1 -  1) =    -13.06605  eV     1   --> A'             
     e(  2 -  2) =     -4.77296  eV     1   --> A''            
     e(  3 -  3) =     -3.94458  eV     1   --> A'             
     e(  4 -  4) =     -3.63858  eV     1   --> A'             
     e(  5 -  5) =     -0.13348  eV     1   --> A'             
     e(  6 -  6) =      0.81544  eV     1   --> A'             
     e(  7 -  7) =      0.98741  eV     1   --> A'             
     e(  8 -  8) =      1.37410  eV     1   --> A'             

 **************************************************************************

 **************************************************************************

                    xk=(   0.07143,   0.04124,   0.00000  )

     Band symmetry, C_s (m)     point group:

     e(  1 -  1) =    -13.05499  eV     1   --> A'             
     e(  2 -  2) =     -4.76218  eV     1   --> A''            
     e(  3 -  3) =     -4.02433  eV     1   --> A'             
     e(  4 -  4) =     -3.65679  eV     1   --> A'             
     e(  5 -  5) =     -0.08460  eV     1   --> A'             
     e(  6 -  6) =      0.82880  eV     1   --> A'             
     e(  7 -  7) =      1.02784  eV     1   --> A'             
     e(  8 -  8) =      1.38646  eV     1   --> A'             

 **************************************************************************

 **************************************************************************

                    xk=(   0.07857,   0.04536,   0.00000  )

     Band symmetry, C_s (m)     point group:

     e(  1 -  1) =    -13.04278  eV     1   --> A'             
     e(  2 -  2) =     -4.75027  eV     1   --> A''            
     e(  3 -  3) =     -4.10870  eV     1   --> A'             
     e(  4 -  4) =     -3.67650  eV     1   --> A'             
     e(  5 -  5) =     -0.03979  eV     1   --> A'             
     e(  6 -  6) =      0.84958  eV     1   --> A'             
     e(  7 -  7) =      1.07209  eV     1   --> A'             
     e(  8 -  8) =      1.40013  eV     1   --> A'             

 **************************************************************************

 **************************************************************************

                    xk=(   0.08572,   0.04949,   0.00000  )

     Band symmetry, C_s (m)     point group:

     e(  1 -  1) =    -13.02942  eV     1   --> A'             
     e(  2 -  2) =     -4.73723  eV     1   --> A''            
     e(  3 -  3) =     -4.19710  eV     1   --> A'             
     e(  4 -  4) =     -3.69759  eV     1   --> A'             
     e(  5 -  5) =     -0.00122  eV     1   --> A'             
     e(  6 -  6) =      0.87949  eV     1   --> A'             
     e(  7 -  7) =      1.12007  eV     1   --> A'             
     e(  8 -  8) =      1.41509  eV     1   --> A'             

 **************************************************************************

 **************************************************************************

                    xk=(   0.09286,   0.05361,   0.00000  )

     Band symmetry, C_s (m)     point group:

     e(  1 -  1) =    -13.01490  eV     1   --> A'             
     e(  2 -  2) =     -4.72307  eV     1   --> A''            
     e(  3 -  3) =     -4.28897  eV     1   --> A'             
     e(  4 -  4) =     -3.71997  eV     1   --> A'             
     e(  5 -  5) =      0.02936  eV     1   --> A'             
     e(  6 -  6) =      0.91988  eV     1   --> A'             
     e(  7 -  7) =      1.17167  eV     1   --> A'             
     e(  8 -  8) =      1.43134  eV     1   --> A'             

 **************************************************************************

 **************************************************************************

                    xk=(   0.10000,   0.05773,   0.00000  )

     Band symmetry, C_s (m)     point group:

     e(  1 -  1) =    -12.99923  eV     1   --> A'             
     e(  2 -  2) =     -4.70779  eV     1   --> A''            
     e(  3 -  3) =     -4.38382  eV     1   --> A'             
     e(  4 -  4) =     -3.74353  eV     1   --> A'             
     e(  5 -  5) =      0.05093  eV     1   --> A'             
     e(  6 -  6) =      0.97143  eV     1   --> A'             
     e(  7 -  7) =      1.22678  eV     1   --> A'             
     e(  8 -  8) =      1.44889  eV     1   --> A'             

 **************************************************************************

 **************************************************************************

                    xk=(   0.10715,   0.06186,   0.00000  )

     Band symmetry, C_s (m)     point group:

     e(  1 -  1) =    -12.98241  eV     1   --> A'             
     e(  2 -  2) =     -4.69139  eV     1   --> A''            
     e(  3 -  3) =     -4.48124  eV     1   --> A'             
     e(  4 -  4) =     -3.76815  eV     1   --> A'             
     e(  5 -  5) =      0.06332  eV     1   --> A'             
     e(  6 -  6) =      1.03402  eV     1   --> A'             
     e(  7 -  7) =      1.28529  eV     1   --> A'             
     e(  8 -  8) =      1.46774  eV     1   --> A'             

 **************************************************************************

 **************************************************************************

                    xk=(   0.11429,   0.06598,   0.00000  )

     Band symmetry, C_s (m)     point group:

     e(  1 -  1) =    -12.96444  eV     1   --> A'             
     e(  2 -  2) =     -4.67387  eV     1   --> A''            
     e(  3 -  3) =     -4.58085  eV     1   --> A'             
     e(  4 -  4) =     -3.79373  eV     1   --> A'             
     e(  5 -  5) =      0.06708  eV     1   --> A'             
     e(  6 -  6) =      1.10687  eV     1   --> A'             
     e(  7 -  7) =      1.34709  eV     1   --> A'             
     e(  8 -  8) =      1.48788  eV     1   --> A'             

 **************************************************************************

 **************************************************************************

                    xk=(   0.12143,   0.07011,   0.00000  )

     Band symmetry, C_s (m)     point group:

     e(  1 -  1) =    -12.94534  eV     1   --> A'             
     e(  2 -  2) =     -4.68231  eV     1   --> A'             
     e(  3 -  3) =     -4.65524  eV     1   --> A''            
     e(  4 -  4) =     -3.82017  eV     1   --> A'             
     e(  5 -  5) =      0.06322  eV     1   --> A'             
     e(  6 -  6) =      1.18879  eV     1   --> A'             
     e(  7 -  7) =      1.41208  eV     1   --> A'             
     e(  8 -  8) =      1.50931  eV     1   --> A'             

 **************************************************************************

 **************************************************************************

                    xk=(   0.12857,   0.07423,   0.00000  )

     Band symmetry, C_s (m)     point group:

     e(  1 -  1) =    -12.92509  eV     1   --> A'             
     e(  2 -  2) =     -4.78534  eV     1   --> A'             
     e(  3 -  3) =     -4.63550  eV     1   --> A''            
     e(  4 -  4) =     -3.84735  eV     1   --> A'             
     e(  5 -  5) =      0.05290  eV     1   --> A'             
     e(  6 -  6) =      1.27844  eV     1   --> A'             
     e(  7 -  7) =      1.48015  eV     1   --> A'             
     e(  8 -  8) =      1.53204  eV     1   --> A'             

 **************************************************************************

 **************************************************************************

                    xk=(   0.13572,   0.07835,   0.00000  )

     Band symmetry, C_s (m)     point group:

     e(  1 -  1) =    -12.90371  eV     1   --> A'             
     e(  2 -  2) =     -4.88967  eV     1   --> A'             
     e(  3 -  3) =     -4.61465  eV     1   --> A''            
     e(  4 -  4) =     -3.87518  eV     1   --> A'             
     e(  5 -  5) =      0.03727  eV     1   --> A'             
     e(  6 -  6) =      1.37456  eV     1   --> A'             
     e(  7 -  7) =      1.55120  eV     1   --> A'             
     e(  8 -  8) =      1.55605  eV     1   --> A'             

 **************************************************************************

 **************************************************************************

                    xk=(   0.14286,   0.08248,   0.00000  )

     Band symmetry, C_s (m)     point group:

     e(  1 -  1) =    -12.88120  eV     1   --> A'             
     e(  2 -  2) =     -4.99509  eV     1   --> A'             
     e(  3 -  3) =     -4.59269  eV     1   --> A''            
     e(  4 -  4) =     -3.90357  eV     1   --> A'             
     e(  5 -  5) =      0.01733  eV     1   --> A'             
     e(  6 -  6) =      1.47604  eV     1   --> A'             
     e(  7 -  7) =      1.58137  eV     1   --> A'             
     e(  8 -  8) =      1.62512  eV     1   --> A'             

 **************************************************************************

 **************************************************************************

                    xk=(   0.15000,   0.08660,   0.00000  )

     Band symmetry, C_s (m)     point group:

     e(  1 -  1) =    -12.85756  eV     1   --> A'             
     e(  2 -  2) =     -5.10138  eV     1   --> A'             
     e(  3 -  3) =     -4.56964  eV     1   --> A''            
     e(  4 -  4) =     -3.93242  eV     1   --> A'             
     e(  5 -  5) =     -0.00608  eV     1   --> A'             
     e(  6 -  6) =      1.58188  eV     1   --> A'             
     e(  7 -  7) =      1.60804  eV     1   --> A'             
     e(  8 -  8) =      1.70184  eV     1   --> A'             

 **************************************************************************

 **************************************************************************

                    xk=(   0.15715,   0.09073,   0.00000  )

     Band symmetry, C_s (m)     point group:

     e(  1 -  1) =    -12.83280  eV     1   --> A'             
     e(  2 -  2) =     -5.20839  eV     1   --> A'             
     e(  3 -  3) =     -4.54550  eV     1   --> A''            
     e(  4 -  4) =     -3.96164  eV     1   --> A'             
     e(  5 -  5) =     -0.03226  eV     1   --> A'             
     e(  6 -  6) =      1.63573  eV     1   --> A'             
     e(  7 -  7) =      1.69165  eV     1   --> A'             
     e(  8 -  8) =      1.78126  eV     1   --> A'             

 **************************************************************************

 **************************************************************************

                    xk=(   0.16429,   0.09485,   0.00000  )

     Band symmetry, C_s (m)     point group:

     e(  1 -  1) =    -12.80693  eV     1   --> A'             
     e(  2 -  2) =     -5.31594  eV     1   --> A'             
     e(  3 -  3) =     -4.52026  eV     1   --> A''            
     e(  4 -  4) =     -3.99115  eV     1   --> A'             
     e(  5 -  5) =     -0.06063  eV     1   --> A'             
     e(  6 -  6) =      1.66492  eV     1   --> A'             
     e(  7 -  7) =      1.80427  eV     1   --> A'             
     e(  8 -  8) =      1.86329  eV     1   --> A'             

 **************************************************************************

 **************************************************************************

                    xk=(   0.17143,   0.09897,   0.00000  )

     Band symmetry, C_s (m)     point group:

     e(  1 -  1) =    -12.77994  eV     1   --> A'             
     e(  2 -  2) =     -5.42390  eV     1   --> A'             
     e(  3 -  3) =     -4.49394  eV     1   --> A''            
     e(  4 -  4) =     -4.02086  eV     1   --> A'             
     e(  5 -  5) =     -0.09075  eV     1   --> A'             
     e(  6 -  6) =      1.69536  eV     1   --> A'             
     e(  7 -  7) =      1.91944  eV     1   --> A'             
     e(  8 -  8) =      1.94785  eV     1   --> A'             

 **************************************************************************

 **************************************************************************

                    xk=(   0.17858,   0.10310,   0.00000  )

     Band symmetry, C_s (m)     point group:

     e(  1 -  1) =    -12.75185  eV     1   --> A'             
     e(  2 -  2) =     -5.53213  eV     1   --> A'             
     e(  3 -  3) =     -4.46655  eV     1   --> A''            
     e(  4 -  4) =     -4.05071  eV     1   --> A'             
     e(  5 -  5) =     -0.12223  eV     1   --> A'             
     e(  6 -  6) =      1.72707  eV     1   --> A'             
     e(  7 -  7) =      2.03478  eV     1   --> A'             
     e(  8 -  8) =      2.03682  eV     1   --> A'             

 **************************************************************************

 **************************************************************************

                    xk=(   0.18572,   0.10722,   0.00000  )

     Band symmetry, C_s (m)     point group:

     e(  1 -  1) =    -12.72266  eV     1   --> A'             
     e(  2 -  2) =     -5.64053  eV     1   --> A'             
     e(  3 -  3) =     -4.43808  eV     1   --> A''            
     e(  4 -  4) =     -4.08061  eV     1   --> A'             
     e(  5 -  5) =     -0.15476  eV     1   --> A'             
     e(  6 -  6) =      1.76006  eV     1   --> A'             
     e(  7 -  7) =      2.12424  eV     1   --> A'             
     e(  8 -  8) =      2.15582  eV     1   --> A'             

 **************************************************************************

 **************************************************************************

                    xk=(   0.19286,   0.11135,   0.00000  )

     Band symmetry, C_s (m)     point group:

     e(  1 -  1) =    -12.69238  eV     1   --> A'             
     e(  2 -  2) =     -5.74900  eV     1   --> A'             
     e(  3 -  3) =     -4.40855  eV     1   --> A''            
     e(  4 -  4) =     -4.11051  eV     1   --> A'             
     e(  5 -  5) =     -0.18807  eV     1   --> A'             
     e(  6 -  6) =      1.79432  eV     1   --> A'             
     e(  7 -  7) =      2.21594  eV     1   --> A'             
     e(  8 -  8) =      2.27636  eV     1   --> A'             

 **************************************************************************

 **************************************************************************

                    xk=(   0.20000,   0.11547,   0.00000  )

     Band symmetry, C_s (m)     point group:

     e(  1 -  1) =    -12.66102  eV     1   --> A'             
     e(  2 -  2) =     -5.85743  eV     1   --> A'             
     e(  3 -  3) =     -4.37796  eV     1   --> A''            
     e(  4 -  4) =     -4.14034  eV     1   --> A'             
     e(  5 -  5) =     -0.22196  eV     1   --> A'             
     e(  6 -  6) =      1.82984  eV     1   --> A'             
     e(  7 -  7) =      2.26194  eV     1   --> A''            
     e(  8 -  8) =      2.30989  eV     1   --> A'             

 **************************************************************************

 **************************************************************************

                    xk=(   0.20715,   0.11959,   0.00000  )

     Band symmetry, C_s (m)     point group:

     e(  1 -  1) =    -12.62858  eV     1   --> A'             
     e(  2 -  2) =     -5.96574  eV     1   --> A'             
     e(  3 -  3) =     -4.34632  eV     1   --> A''            
     e(  4 -  4) =     -4.17003  eV     1   --> A'             
     e(  5 -  5) =     -0.25622  eV     1   --> A'             
     e(  6 -  6) =      1.86664  eV     1   --> A'             
     e(  7 -  7) =      2.15857  eV     1   --> A''            
     e(  8 -  8) =      2.40602  eV     1   --> A'             

 **************************************************************************

 **************************************************************************

                    xk=(   0.21429,   0.12372,   0.00000  )

     Band symmetry, C_s (m)     point group:

     e(  1 -  1) =    -12.59507  eV     1   --> A'             
     e(  2 -  2) =     -6.07385  eV     1   --> A'             
     e(  3 -  3) =     -4.31365  eV     1   --> A''            
     e(  4 -  4) =     -4.19953  eV     1   --> A'             
     e(  5 -  5) =     -0.29070  eV     1   --> A'             
     e(  6 -  6) =      1.90469  eV     1   --> A'             
     e(  7 -  7) =      2.05528  eV     1   --> A''            
     e(  8 -  8) =      2.50427  eV     1   --> A'             

 **************************************************************************

 **************************************************************************

                    xk=(   0.22143,   0.12784,   0.00000  )

     Band symmetry, C_s (m)     point group:

     e(  1 -  1) =    -12.56051  eV     1   --> A'             
     e(  2 -  2) =     -6.18168  eV     1   --> A'             
     e(  3 -  3) =     -4.27994  eV     1   --> A''            
     e(  4 -  4) =     -4.22879  eV     1   --> A'             
     e(  5 -  5) =     -0.32526  eV     1   --> A'             
     e(  6 -  6) =      1.94401  eV     1   --> A'             
     e(  7 -  7) =      1.95213  eV     1   --> A''            
     e(  8 -  8) =      2.60459  eV     1   --> A'             

 **************************************************************************

 **************************************************************************

                    xk=(   0.22858,   0.13196,   0.00000  )

     Band symmetry, C_s (m)     point group:

     e(  1 -  1) =    -12.52490  eV     1   --> A'             
     e(  2 -  2) =     -6.28918  eV     1   --> A'             
     e(  3 -  3) =     -4.25776  eV     1   --> A'             
     e(  4 -  4) =     -4.24522  eV     1   --> A''            
     e(  5 -  5) =     -0.35977  eV     1   --> A'             
     e(  6 -  6) =      1.84920  eV     1   --> A''            
     e(  7 -  7) =      1.98457  eV     1   --> A'             
     e(  8 -  8) =      2.70693  eV     1   --> A'             

 **************************************************************************

 **************************************************************************

                    xk=(   0.23572,   0.13609,   0.00000  )

     Band symmetry, C_s (m)     point group:

     e(  1 -  1) =    -12.48826  eV     1   --> A'             
     e(  2 -  2) =     -6.39626  eV     1   --> A'             
     e(  3 -  3) =     -4.28639  eV     1   --> A'             
     e(  4 -  4) =     -4.20949  eV     1   --> A''            
     e(  5 -  5) =     -0.39412  eV     1   --> A'             
     e(  6 -  6) =      1.74655  eV     1   --> A''            
     e(  7 -  7) =      2.02639  eV     1   --> A'             
     e(  8 -  8) =      2.81123  eV     1   --> A'             

 **************************************************************************

 **************************************************************************

                    xk=(   0.24286,   0.14021,   0.00000  )

     Band symmetry, C_s (m)     point group:

     e(  1 -  1) =    -12.45060  eV     1   --> A'             
     e(  2 -  2) =     -6.50288  eV     1   --> A'             
     e(  3 -  3) =     -4.31464  eV     1   --> A'             
     e(  4 -  4) =     -4.17276  eV     1   --> A''            
     e(  5 -  5) =     -0.42823  eV     1   --> A'             
     e(  6 -  6) =      1.64425  eV     1   --> A''            
     e(  7 -  7) =      2.06946  eV     1   --> A'             
     e(  8 -  8) =      2.91746  eV     1   --> A'             

 **************************************************************************

 **************************************************************************

                    xk=(   0.25001,   0.14434,   0.00000  )

     Band symmetry, C_s (m)     point group:

     e(  1 -  1) =    -12.41193  eV     1   --> A'             
     e(  2 -  2) =     -6.60898  eV     1   --> A'             
     e(  3 -  3) =     -4.34247  eV     1   --> A'             
     e(  4 -  4) =     -4.13506  eV     1   --> A''            
     e(  5 -  5) =     -0.46200  eV     1   --> A'             
     e(  6 -  6) =      1.54235  eV     1   --> A''            
     e(  7 -  7) =      2.11376  eV     1   --> A'             
     e(  8 -  8) =      3.02557  eV     1   --> A'             

 **************************************************************************

 **************************************************************************

                    xk=(   0.25715,   0.14846,   0.00000  )

     Band symmetry, C_s (m)     point group:

     e(  1 -  1) =    -12.37226  eV     1   --> A'             
     e(  2 -  2) =     -6.71449  eV     1   --> A'             
     e(  3 -  3) =     -4.36983  eV     1   --> A'             
     e(  4 -  4) =     -4.09639  eV     1   --> A''            
     e(  5 -  5) =     -0.49535  eV     1   --> A'             
     e(  6 -  6) =      1.44093  eV     1   --> A''            
     e(  7 -  7) =      2.15930  eV     1   --> A'             
     e(  8 -  8) =      3.13551  eV     1   --> A'             

 **************************************************************************

 **************************************************************************

                    xk=(   0.26429,   0.15258,   0.00000  )

     Band symmetry, C_s (m)     point group:

     e(  1 -  1) =    -12.33163  eV     1   --> A'             
     e(  2 -  2) =     -6.81936  eV     1   --> A'             
     e(  3 -  3) =     -4.39670  eV     1   --> A'             
     e(  4 -  4) =     -4.05677  eV     1   --> A''            
     e(  5 -  5) =     -0.52823  eV     1   --> A'             
     e(  6 -  6) =      1.34002  eV     1   --> A''            
     e(  7 -  7) =      2.20607  eV     1   --> A'             
     e(  8 -  8) =      3.24726  eV     1   --> A'             

 **************************************************************************

 **************************************************************************

                    xk=(   0.27143,   0.15671,   0.00000  )

     Band symmetry, C_s (m)     point group:

     e(  1 -  1) =    -12.29003  eV     1   --> A'             
     e(  2 -  2) =     -6.92354  eV     1   --> A'             
     e(  3 -  3) =     -4.42304  eV     1   --> A'             
     e(  4 -  4) =     -4.01622  eV     1   --> A''            
     e(  5 -  5) =     -0.56055  eV     1   --> A'             
     e(  6 -  6) =      1.23970  eV     1   --> A''            
     e(  7 -  7) =      2.25406  eV     1   --> A'             
     e(  8 -  8) =      3.36076  eV     1   --> A'             

 **************************************************************************

 **************************************************************************

                    xk=(   0.27858,   0.16083,   0.00000  )

     Band symmetry, C_s (m)     point group:

     e(  1 -  1) =    -12.24750  eV     1   --> A'             
     e(  2 -  2) =     -7.02699  eV     1   --> A'             
     e(  3 -  3) =     -4.44882  eV     1   --> A'             
     e(  4 -  4) =     -3.97477  eV     1   --> A''            
     e(  5 -  5) =     -0.59228  eV     1   --> A'             
     e(  6 -  6) =      1.14002  eV     1   --> A''            
     e(  7 -  7) =      2.30326  eV     1   --> A'             
     e(  8 -  8) =      3.47600  eV     1   --> A'             

 **************************************************************************

 **************************************************************************

                    xk=(   0.28572,   0.16496,   0.00000  )

     Band symmetry, C_s (m)     point group:

     e(  1 -  1) =    -12.20406  eV     1   --> A'             
     e(  2 -  2) =     -7.12963  eV     1   --> A'             
     e(  3 -  3) =     -4.47401  eV     1   --> A'             
     e(  4 -  4) =     -3.93242  eV     1   --> A''            
     e(  5 -  5) =     -0.62336  eV     1   --> A'             
     e(  6 -  6) =      1.04102  eV     1   --> A''            
     e(  7 -  7) =      2.35366  eV     1   --> A'             
     e(  8 -  8) =      3.59293  eV     1   --> A'             

 **************************************************************************

 **************************************************************************

                    xk=(   0.29286,   0.16908,   0.00000  )

     Band symmetry, C_s (m)     point group:

     e(  1 -  1) =    -12.15973  eV     1   --> A'             
     e(  2 -  2) =     -7.23144  eV     1   --> A'             
     e(  3 -  3) =     -4.49858  eV     1   --> A'             
     e(  4 -  4) =     -3.88922  eV     1   --> A''            
     e(  5 -  5) =     -0.65373  eV     1   --> A'             
     e(  6 -  6) =      0.94278  eV     1   --> A''            
     e(  7 -  7) =      2.40527  eV     1   --> A'             
     e(  8 -  8) =      3.71153  eV     1   --> A'             

 **************************************************************************

 **************************************************************************

                    xk=(   0.30001,   0.17320,   0.00000  )

     Band symmetry, C_s (m)     point group:

     e(  1 -  1) =    -12.11454  eV     1   --> A'             
     e(  2 -  2) =     -7.33234  eV     1   --> A'             
     e(  3 -  3) =     -4.52251  eV     1   --> A'             
     e(  4 -  4) =     -3.84519  eV     1   --> A''            
     e(  5 -  5) =     -0.68336  eV     1   --> A'             
     e(  6 -  6) =      0.84534  eV     1   --> A''            
     e(  7 -  7) =      2.45805  eV     1   --> A'             
     e(  8 -  8) =      3.83176  eV     1   --> A'             

 **************************************************************************

 **************************************************************************

                    xk=(   0.30715,   0.17733,   0.00000  )

     Band symmetry, C_s (m)     point group:

     e(  1 -  1) =    -12.06852  eV     1   --> A'             
     e(  2 -  2) =     -7.43228  eV     1   --> A'             
     e(  3 -  3) =     -4.54577  eV     1   --> A'             
     e(  4 -  4) =     -3.80036  eV     1   --> A''            
     e(  5 -  5) =     -0.71222  eV     1   --> A'             
     e(  6 -  6) =      0.74876  eV     1   --> A''            
     e(  7 -  7) =      2.51201  eV     1   --> A'             
     e(  8 -  8) =      3.95360  eV     1   --> A'             

 **************************************************************************

 **************************************************************************

                    xk=(   0.31429,   0.18145,   0.00000  )

     Band symmetry, C_s (m)     point group:

     e(  1 -  1) =    -12.02170  eV     1   --> A'             
     e(  2 -  2) =     -7.53122  eV     1   --> A'             
     e(  3 -  3) =     -4.56835  eV     1   --> A'             
     e(  4 -  4) =     -3.75476  eV     1   --> A''            
     e(  5 -  5) =     -0.74026  eV     1   --> A'             
     e(  6 -  6) =      0.65311  eV     1   --> A''            
     e(  7 -  7) =      2.56713  eV     1   --> A'             
     e(  8 -  8) =      4.07703  eV     1   --> A'             

 **************************************************************************

 **************************************************************************

                    xk=(   0.32144,   0.18558,   0.00000  )

     Band symmetry, C_s (m)     point group:

     e(  1 -  1) =    -11.97413  eV     1   --> A'             
     e(  2 -  2) =     -7.62908  eV     1   --> A'             
     e(  3 -  3) =     -4.59021  eV     1   --> A'             
     e(  4 -  4) =     -3.70844  eV     1   --> A''            
     e(  5 -  5) =     -0.76745  eV     1   --> A'             
     e(  6 -  6) =      0.55845  eV     1   --> A''            
     e(  7 -  7) =      2.62340  eV     1   --> A'             
     e(  8 -  8) =      4.20201  eV     1   --> A'             

 **************************************************************************

 **************************************************************************

                    xk=(   0.32858,   0.18970,   0.00000  )

     Band symmetry, C_s (m)     point group:

     e(  1 -  1) =    -11.92586  eV     1   --> A'             
     e(  2 -  2) =     -7.72580  eV     1   --> A'             
     e(  3 -  3) =     -4.61135  eV     1   --> A'             
     e(  4 -  4) =     -3.66144  eV     1   --> A''            
     e(  5 -  5) =     -0.79376  eV     1   --> A'             
     e(  6 -  6) =      0.46485  eV     1   --> A''            
     e(  7 -  7) =      2.68080  eV     1   --> A'             
     e(  8 -  8) =      4.32853  eV     1   --> A'             

 **************************************************************************

 **************************************************************************

                    xk=(   0.33572,   0.19382,   0.00000  )

     Band symmetry, C_s (m)     point group:

     e(  1 -  1) =    -11.87692  eV     1   --> A'             
     e(  2 -  2) =     -7.82133  eV     1   --> A'             
     e(  3 -  3) =     -4.63175  eV     1   --> A'             
     e(  4 -  4) =     -3.61381  eV     1   --> A''            
     e(  5 -  5) =     -0.81916  eV     1   --> A'             
     e(  6 -  6) =      0.37238  eV     1   --> A''            
     e(  7 -  7) =      2.73931  eV     1   --> A'             
     e(  8 -  8) =      4.42514  eV     1   --> A''            

 **************************************************************************

 **************************************************************************

                    xk=(   0.34286,   0.19795,   0.00000  )

     Band symmetry, C_s (m)     point group:

     e(  1 -  1) =    -11.82739  eV     1   --> A'             
     e(  2 -  2) =     -7.91557  eV     1   --> A'             
     e(  3 -  3) =     -4.65138  eV     1   --> A'             
     e(  4 -  4) =     -3.56561  eV     1   --> A''            
     e(  5 -  5) =     -0.84364  eV     1   --> A'             
     e(  6 -  6) =      0.28111  eV     1   --> A''            
     e(  7 -  7) =      2.79892  eV     1   --> A'             
     e(  8 -  8) =      4.48022  eV     1   --> A''            

 **************************************************************************

 **************************************************************************

                    xk=(   0.35001,   0.20207,   0.00000  )

     Band symmetry, C_s (m)     point group:

     e(  1 -  1) =    -11.77732  eV     1   --> A'             
     e(  2 -  2) =     -8.00846  eV     1   --> A'             
     e(  3 -  3) =     -4.67023  eV     1   --> A'             
     e(  4 -  4) =     -3.51691  eV     1   --> A''            
     e(  5 -  5) =     -0.86716  eV     1   --> A'             
     e(  6 -  6) =      0.19114  eV     1   --> A''            
     e(  7 -  7) =      2.85959  eV     1   --> A'             
     e(  8 -  8) =      4.53591  eV     1   --> A''            

 **************************************************************************

 **************************************************************************

                    xk=(   0.35715,   0.20620,   0.00000  )

     Band symmetry, C_s (m)     point group:

     e(  1 -  1) =    -11.72679  eV     1   --> A'             
     e(  2 -  2) =     -8.09989  eV     1   --> A'             
     e(  3 -  3) =     -4.68829  eV     1   --> A'             
     e(  4 -  4) =     -3.46779  eV     1   --> A''            
     e(  5 -  5) =     -0.88970  eV     1   --> A'             
     e(  6 -  6) =      0.10256  eV     1   --> A''            
     e(  7 -  7) =      2.92130  eV     1   --> A'             
     e(  8 -  8) =      4.59212  eV     1   --> A''            

 **************************************************************************

 **************************************************************************

                    xk=(   0.36429,   0.21032,   0.00000  )

     Band symmetry, C_s (m)     point group:

     e(  1 -  1) =    -11.67589  eV     1   --> A'             
     e(  2 -  2) =     -8.18978  eV     1   --> A'             
     e(  3 -  3) =     -4.70554  eV     1   --> A'             
     e(  4 -  4) =     -3.41832  eV     1   --> A''            
     e(  5 -  5) =     -0.91126  eV     1   --> A'             
     e(  6 -  6) =      0.01546  eV     1   --> A''            
     e(  7 -  7) =      2.98403  eV     1   --> A'             
     e(  8 -  8) =      4.64874  eV     1   --> A''            

 **************************************************************************

 **************************************************************************

                    xk=(   0.37144,   0.21444,   0.00000  )

     Band symmetry, C_s (m)     point group:

     e(  1 -  1) =    -11.62472  eV     1   --> A'             
     e(  2 -  2) =     -8.27801  eV     1   --> A'             
     e(  3 -  3) =     -4.72198  eV     1   --> A'             
     e(  4 -  4) =     -3.36862  eV     1   --> A''            
     e(  5 -  5) =     -0.93180  eV     1   --> A'             
     e(  6 -  6) =     -0.07003  eV     1   --> A''            
     e(  7 -  7) =      3.04773  eV     1   --> A'             
     e(  8 -  8) =      4.70565  eV     1   --> A''            

 **************************************************************************

 **************************************************************************

                    xk=(   0.37858,   0.21857,   0.00000  )

     Band symmetry, C_s (m)     point group:

     e(  1 -  1) =    -11.57339  eV     1   --> A'             
     e(  2 -  2) =     -8.36445  eV     1   --> A'             
     e(  3 -  3) =     -4.73759  eV     1   --> A'             
     e(  4 -  4) =     -3.31879  eV     1   --> A''            
     e(  5 -  5) =     -0.95131  eV     1   --> A'             
     e(  6 -  6) =     -0.15379  eV     1   --> A''            
     e(  7 -  7) =      3.11236  eV     1   --> A'             
     e(  8 -  8) =      4.76270  eV     1   --> A''            

 **************************************************************************

 **************************************************************************

                    xk=(   0.38572,   0.22269,   0.00000  )

     Band symmetry, C_s (m)     point group:

     e(  1 -  1) =    -11.52204  eV     1   --> A'             
     e(  2 -  2) =     -8.44896  eV     1   --> A'             
     e(  3 -  3) =     -4.75236  eV     1   --> A'             
     e(  4 -  4) =     -3.26898  eV     1   --> A''            
     e(  5 -  5) =     -0.96977  eV     1   --> A'             
     e(  6 -  6) =     -0.23566  eV     1   --> A''            
     e(  7 -  7) =      3.17787  eV     1   --> A'             
     e(  8 -  8) =      4.81973  eV     1   --> A''            

 **************************************************************************

 **************************************************************************

                    xk=(   0.39287,   0.22681,   0.00000  )

     Band symmetry, C_s (m)     point group:

     e(  1 -  1) =    -11.47083  eV     1   --> A'             
     e(  2 -  2) =     -8.53137  eV     1   --> A'             
     e(  3 -  3) =     -4.76627  eV     1   --> A'             
     e(  4 -  4) =     -3.21933  eV     1   --> A''            
     e(  5 -  5) =     -0.98718  eV     1   --> A'             
     e(  6 -  6) =     -0.31548  eV     1   --> A''            
     e(  7 -  7) =      3.24421  eV     1   --> A'             
     e(  8 -  8) =      4.87654  eV     1   --> A''            

 **************************************************************************

 **************************************************************************

                    xk=(   0.40001,   0.23094,   0.00000  )

     Band symmetry, C_s (m)     point group:

     e(  1 -  1) =    -11.41994  eV     1   --> A'             
     e(  2 -  2) =     -8.61148  eV     1   --> A'             
     e(  3 -  3) =     -4.77933  eV     1   --> A'             
     e(  4 -  4) =     -3.17004  eV     1   --> A''            
     e(  5 -  5) =     -1.00352  eV     1   --> A'             
     e(  6 -  6) =     -0.39305  eV     1   --> A''            
     e(  7 -  7) =      3.31130  eV     1   --> A'             
     e(  8 -  8) =      4.93288  eV     1   --> A''            

 **************************************************************************

 **************************************************************************

                    xk=(   0.40715,   0.23506,   0.00000  )

     Band symmetry, C_s (m)     point group:

     e(  1 -  1) =    -11.36958  eV     1   --> A'             
     e(  2 -  2) =     -8.68908  eV     1   --> A'             
     e(  3 -  3) =     -4.79153  eV     1   --> A'             
     e(  4 -  4) =     -3.12131  eV     1   --> A''            
     e(  5 -  5) =     -1.01878  eV     1   --> A'             
     e(  6 -  6) =     -0.46815  eV     1   --> A''            
     e(  7 -  7) =      3.37905  eV     1   --> A'             
     e(  8 -  8) =      4.98850  eV     1   --> A''            

 **************************************************************************

 **************************************************************************

                    xk=(   0.41429,   0.23919,   0.00000  )

     Band symmetry, C_s (m)     point group:

     e(  1 -  1) =    -11.32001  eV     1   --> A'             
     e(  2 -  2) =     -8.76390  eV     1   --> A'             
     e(  3 -  3) =     -4.80284  eV     1   --> A'             
     e(  4 -  4) =     -3.07340  eV     1   --> A''            
     e(  5 -  5) =     -1.03295  eV     1   --> A'             
     e(  6 -  6) =     -0.54052  eV     1   --> A''            
     e(  7 -  7) =      3.44736  eV     1   --> A'             
     e(  8 -  8) =      5.04306  eV     1   --> A''            

 **************************************************************************

 **************************************************************************

                    xk=(   0.42144,   0.24331,   0.00000  )

     Band symmetry, C_s (m)     point group:

     e(  1 -  1) =    -11.27152  eV     1   --> A'             
     e(  2 -  2) =     -8.83564  eV     1   --> A'             
     e(  3 -  3) =     -4.81328  eV     1   --> A'             
     e(  4 -  4) =     -3.02659  eV     1   --> A''            
     e(  5 -  5) =     -1.04602  eV     1   --> A'             
     e(  6 -  6) =     -0.60986  eV     1   --> A''            
     e(  7 -  7) =      3.51607  eV     1   --> A'             
     e(  8 -  8) =      5.09619  eV     1   --> A''            

 **************************************************************************

 **************************************************************************

                    xk=(   0.42858,   0.24743,   0.00000  )

     Band symmetry, C_s (m)     point group:

     e(  1 -  1) =    -11.22446  eV     1   --> A'             
     e(  2 -  2) =     -8.90395  eV     1   --> A'             
     e(  3 -  3) =     -4.82283  eV     1   --> A'             
     e(  4 -  4) =     -2.98122  eV     1   --> A''            
     e(  5 -  5) =     -1.05797  eV     1   --> A'             
     e(  6 -  6) =     -0.67583  eV     1   --> A''            
     e(  7 -  7) =      3.58503  eV     1   --> A'             
     e(  8 -  8) =      5.08418  eV     1   --> A'             

 **************************************************************************

 **************************************************************************

                    xk=(   0.43572,   0.25156,   0.00000  )

     Band symmetry, C_s (m)     point group:

     e(  1 -  1) =    -11.17924  eV     1   --> A'             
     e(  2 -  2) =     -8.96843  eV     1   --> A'             
     e(  3 -  3) =     -4.83149  eV     1   --> A'             
     e(  4 -  4) =     -2.93767  eV     1   --> A''            
     e(  5 -  5) =     -1.06881  eV     1   --> A'             
     e(  6 -  6) =     -0.73804  eV     1   --> A''            
     e(  7 -  7) =      3.65398  eV     1   --> A'             
     e(  8 -  8) =      5.04582  eV     1   --> A'             

 **************************************************************************

 **************************************************************************

                    xk=(   0.44287,   0.25568,   0.00000  )

     Band symmetry, C_s (m)     point group:

     e(  1 -  1) =    -11.13630  eV     1   --> A'             
     e(  2 -  2) =     -9.02859  eV     1   --> A'             
     e(  3 -  3) =     -4.83925  eV     1   --> A'             
     e(  4 -  4) =     -2.89640  eV     1   --> A''            
     e(  5 -  5) =     -1.07853  eV     1   --> A'             
     e(  6 -  6) =     -0.79602  eV     1   --> A''            
     e(  7 -  7) =      3.72260  eV     1   --> A'             
     e(  8 -  8) =      5.00080  eV     1   --> A'             

 **************************************************************************

 **************************************************************************

                    xk=(   0.45001,   0.25981,   0.00000  )

     Band symmetry, C_s (m)     point group:

     e(  1 -  1) =    -11.09618  eV     1   --> A'             
     e(  2 -  2) =     -9.08393  eV     1   --> A'             
     e(  3 -  3) =     -4.84610  eV     1   --> A'             
     e(  4 -  4) =     -2.85790  eV     1   --> A''            
     e(  5 -  5) =     -1.08712  eV     1   --> A'             
     e(  6 -  6) =     -0.84928  eV     1   --> A''            
     e(  7 -  7) =      3.79046  eV     1   --> A'             
     e(  8 -  8) =      4.95091  eV     1   --> A'             

 **************************************************************************

 **************************************************************************

                    xk=(   0.45715,   0.26393,   0.00000  )

     Band symmetry, C_s (m)     point group:

     e(  1 -  1) =    -11.05947  eV     1   --> A'             
     e(  2 -  2) =     -9.13384  eV     1   --> A'             
     e(  3 -  3) =     -4.85205  eV     1   --> A'             
     e(  4 -  4) =     -2.82273  eV     1   --> A''            
     e(  5 -  5) =     -1.09457  eV     1   --> A'             
     e(  6 -  6) =     -0.89726  eV     1   --> A''            
     e(  7 -  7) =      3.85689  eV     1   --> A'             
     e(  8 -  8) =      4.89795  eV     1   --> A'             

 **************************************************************************

 **************************************************************************

                    xk=(   0.46430,   0.26805,   0.00000  )

     Band symmetry, C_s (m)     point group:

     e(  1 -  1) =    -11.02679  eV     1   --> A'             
     e(  2 -  2) =     -9.17769  eV     1   --> A'             
     e(  3 -  3) =     -4.85709  eV     1   --> A'             
     e(  4 -  4) =     -2.79148  eV     1   --> A''            
     e(  5 -  5) =     -1.10088  eV     1   --> A'             
     e(  6 -  6) =     -0.93934  eV     1   --> A''            
     e(  7 -  7) =      3.92094  eV     1   --> A'             
     e(  8 -  8) =      4.84384  eV     1   --> A'             

 **************************************************************************

 **************************************************************************

                    xk=(   0.47144,   0.27218,   0.00000  )

     Band symmetry, C_s (m)     point group:

     e(  1 -  1) =    -10.99882  eV     1   --> A'             
     e(  2 -  2) =     -9.21480  eV     1   --> A'             
     e(  3 -  3) =     -4.86122  eV     1   --> A'             
     e(  4 -  4) =     -2.76478  eV     1   --> A''            
     e(  5 -  5) =     -1.10605  eV     1   --> A'             
     e(  6 -  6) =     -0.97492  eV     1   --> A''            
     e(  7 -  7) =      3.98114  eV     1   --> A'             
     e(  8 -  8) =      4.79083  eV     1   --> A'             

 **************************************************************************

 **************************************************************************

                    xk=(   0.47858,   0.27630,   0.00000  )

     Band symmetry, C_s (m)     point group:

     e(  1 -  1) =    -10.97620  eV     1   --> A'             
     e(  2 -  2) =     -9.24453  eV     1   --> A'             
     e(  3 -  3) =     -4.86443  eV     1   --> A'             
     e(  4 -  4) =     -2.74323  eV     1   --> A''            
     e(  5 -  5) =     -1.11007  eV     1   --> A'             
     e(  6 -  6) =     -1.00337  eV     1   --> A''            
     e(  7 -  7) =      4.03519  eV     1   --> A'             
     e(  8 -  8) =      4.74179  eV     1   --> A'             

 **************************************************************************

 **************************************************************************

                    xk=(   0.48572,   0.28043,   0.00000  )

     Band symmetry, C_s (m)     point group:

     e(  1 -  1) =    -10.95955  eV     1   --> A'             
     e(  2 -  2) =     -9.26627  eV     1   --> A'             
     e(  3 -  3) =     -4.86672  eV     1   --> A'             
     e(  4 -  4) =     -2.72738  eV     1   --> A''            
     e(  5 -  5) =     -1.11295  eV     1   --> A'             
     e(  6 -  6) =     -1.02416  eV     1   --> A''            
     e(  7 -  7) =      4.07961  eV     1   --> A'             
     e(  8 -  8) =      4.70064  eV     1   --> A'             

 **************************************************************************

 **************************************************************************

                    xk=(   0.49287,   0.28455,   0.00000  )

     Band symmetry, C_s (m)     point group:

     e(  1 -  1) =    -10.94934  eV     1   --> A'             
     e(  2 -  2) =     -9.27952  eV     1   --> A'             
     e(  3 -  3) =     -4.86810  eV     1   --> A'             
     e(  4 -  4) =     -2.71768  eV     1   --> A''            
     e(  5 -  5) =     -1.11468  eV     1   --> A'             
     e(  6 -  6) =     -1.03682  eV     1   --> A''            
     e(  7 -  7) =      4.10964  eV     1   --> A'             
     e(  8 -  8) =      4.67246  eV     1   --> A'             

 **************************************************************************

 **************************************************************************

                    xk=(   0.50001,   0.28867,   0.00000  )

     Band symmetry, C_s (m)     point group:

     e(  1 -  1) =    -10.94590  eV     1   --> A'             
     e(  2 -  2) =     -9.28398  eV     1   --> A'             
     e(  3 -  3) =     -4.86856  eV     1   --> A'             
     e(  4 -  4) =     -2.71441  eV     1   --> A''            
     e(  5 -  5) =     -1.11525  eV     1   --> A'             
     e(  6 -  6) =     -1.04108  eV     1   --> A''            
     e(  7 -  7) =      4.12039  eV     1   --> A'             
     e(  8 -  8) =      4.66231  eV     1   --> A'             

 **************************************************************************

 **************************************************************************

                    xk=(   0.50418,   0.28146,   0.00000  )

     Band symmetry, C_s (m)     point group:

     e(  1 -  1) =    -10.94527  eV     1   --> A'             
     e(  2 -  2) =     -9.28403  eV     1   --> A'             
     e(  3 -  3) =     -4.87259  eV     1   --> A'             
     e(  4 -  4) =     -2.71379  eV     1   --> A''            
     e(  5 -  5) =     -1.10958  eV     1   --> A'             
     e(  6 -  6) =     -1.04120  eV     1   --> A''            
     e(  7 -  7) =      4.12084  eV     1   --> A'             
     e(  8 -  8) =      4.66260  eV     1   --> A'             

 **************************************************************************

 **************************************************************************

                    xk=(   0.50834,   0.27424,   0.00000  )

     Band symmetry, C_s (m)     point group:

     e(  1 -  1) =    -10.94336  eV     1   --> A'             
     e(  2 -  2) =     -9.28417  eV     1   --> A'             
     e(  3 -  3) =     -4.88458  eV     1   --> A'             
     e(  4 -  4) =     -2.71195  eV     1   --> A''            
     e(  5 -  5) =     -1.09264  eV     1   --> A'             
     e(  6 -  6) =     -1.04156  eV     1   --> A''            
     e(  7 -  7) =      4.12219  eV     1   --> A'             
     e(  8 -  8) =      4.66347  eV     1   --> A'             

 **************************************************************************

 **************************************************************************

                    xk=(   0.51251,   0.26702,   0.00000  )

     Band symmetry, C_s (m)     point group:

     e(  1 -  1) =    -10.94018  eV     1   --> A'             
     e(  2 -  2) =     -9.28442  eV     1   --> A'             
     e(  3 -  3) =     -4.90430  eV     1   --> A'             
     e(  4 -  4) =     -2.70888  eV     1   --> A''            
     e(  5 -  5) =     -1.06468  eV     1   --> A'             
     e(  6 -  6) =     -1.04219  eV     1   --> A''            
     e(  7 -  7) =      4.12443  eV     1   --> A'             
     e(  8 -  8) =      4.66490  eV     1   --> A'             

 **************************************************************************

 **************************************************************************

                    xk=(   0.51668,   0.25981,   0.00000  )

     Band symmetry, C_s (m)     point group:

     e(  1 -  1) =    -10.93572  eV     1   --> A'             
     e(  2 -  2) =     -9.28480  eV     1   --> A'             
     e(  3 -  3) =     -4.93136  eV     1   --> A'             
     e(  4 -  4) =     -2.70457  eV     1   --> A''            
     e(  5 -  5) =     -1.04308  eV     1   --> A''            
     e(  6 -  6) =     -1.02605  eV     1   --> A'             
     e(  7 -  7) =      4.12755  eV     1   --> A'             
     e(  8 -  8) =      4.66687  eV     1   --> A'             

 **************************************************************************

 **************************************************************************

                    xk=(   0.52084,   0.25259,   0.00000  )

     Band symmetry, C_s (m)     point group:

     e(  1 -  1) =    -10.92999  eV     1   --> A'             
     e(  2 -  2) =     -9.28531  eV     1   --> A'             
     e(  3 -  3) =     -4.96526  eV     1   --> A'             
     e(  4 -  4) =     -2.69904  eV     1   --> A''            
     e(  5 -  5) =     -1.04426  eV     1   --> A''            
     e(  6 -  6) =     -0.97724  eV     1   --> A'             
     e(  7 -  7) =      4.13154  eV     1   --> A'             
     e(  8 -  8) =      4.66933  eV     1   --> A'             

 **************************************************************************

 **************************************************************************

                    xk=(   0.52501,   0.24537,   0.00000  )

     Band symmetry, C_s (m)     point group:

     e(  1 -  1) =    -10.92299  eV     1   --> A'             
     e(  2 -  2) =     -9.28599  eV     1   --> A'             
     e(  3 -  3) =     -5.00543  eV     1   --> A'             
     e(  4 -  4) =     -2.69227  eV     1   --> A''            
     e(  5 -  5) =     -1.04576  eV     1   --> A''            
     e(  6 -  6) =     -0.91881  eV     1   --> A'             
     e(  7 -  7) =      4.13636  eV     1   --> A'             
     e(  8 -  8) =      4.57711  eV     1   --> A''            

 **************************************************************************

 **************************************************************************

                    xk=(   0.52918,   0.23816,   0.00000  )

     Band symmetry, C_s (m)     point group:

     e(  1 -  1) =    -10.91472  eV     1   --> A'             
     e(  2 -  2) =     -9.28688  eV     1   --> A'             
     e(  3 -  3) =     -5.05122  eV     1   --> A'             
     e(  4 -  4) =     -2.68428  eV     1   --> A''            
     e(  5 -  5) =     -1.04760  eV     1   --> A''            
     e(  6 -  6) =     -0.85138  eV     1   --> A'             
     e(  7 -  7) =      4.14201  eV     1   --> A'             
     e(  8 -  8) =      4.46899  eV     1   --> A''            

 **************************************************************************

 **************************************************************************

                    xk=(   0.53334,   0.23094,   0.00000  )

     Band symmetry, C_s (m)     point group:

     e(  1 -  1) =    -10.90518  eV     1   --> A'             
     e(  2 -  2) =     -9.28801  eV     1   --> A'             
     e(  3 -  3) =     -5.10195  eV     1   --> A'             
     e(  4 -  4) =     -2.67506  eV     1   --> A''            
     e(  5 -  5) =     -1.04983  eV     1   --> A''            
     e(  6 -  6) =     -0.77558  eV     1   --> A'             
     e(  7 -  7) =      4.14843  eV     1   --> A'             
     e(  8 -  8) =      4.36143  eV     1   --> A''            

 **************************************************************************

 **************************************************************************

                    xk=(   0.53751,   0.22372,   0.00000  )

     Band symmetry, C_s (m)     point group:

     e(  1 -  1) =    -10.89437  eV     1   --> A'             
     e(  2 -  2) =     -9.28942  eV     1   --> A'             
     e(  3 -  3) =     -5.15696  eV     1   --> A'             
     e(  4 -  4) =     -2.66461  eV     1   --> A''            
     e(  5 -  5) =     -1.05249  eV     1   --> A''            
     e(  6 -  6) =     -0.69204  eV     1   --> A'             
     e(  7 -  7) =      4.15560  eV     1   --> A'             
     e(  8 -  8) =      4.25487  eV     1   --> A''            

 **************************************************************************

 **************************************************************************

                    xk=(   0.54168,   0.21650,   0.00000  )

     Band symmetry, C_s (m)     point group:

     e(  1 -  1) =    -10.88228  eV     1   --> A'             
     e(  2 -  2) =     -9.29118  eV     1   --> A'             
     e(  3 -  3) =     -5.21557  eV     1   --> A'             
     e(  4 -  4) =     -2.65293  eV     1   --> A''            
     e(  5 -  5) =     -1.05563  eV     1   --> A''            
     e(  6 -  6) =     -0.60140  eV     1   --> A'             
     e(  7 -  7) =      4.14963  eV     1   --> A''            
     e(  8 -  8) =      4.16346  eV     1   --> A'             

 **************************************************************************

 **************************************************************************

                    xk=(   0.54584,   0.20929,   0.00000  )

     Band symmetry, C_s (m)     point group:

     e(  1 -  1) =    -10.86893  eV     1   --> A'             
     e(  2 -  2) =     -9.29334  eV     1   --> A'             
     e(  3 -  3) =     -5.27716  eV     1   --> A'             
     e(  4 -  4) =     -2.64002  eV     1   --> A''            
     e(  5 -  5) =     -1.05931  eV     1   --> A''            
     e(  6 -  6) =     -0.50423  eV     1   --> A'             
     e(  7 -  7) =      4.04598  eV     1   --> A''            
     e(  8 -  8) =      4.17196  eV     1   --> A'             

 **************************************************************************

 **************************************************************************

                    xk=(   0.55001,   0.20207,   0.00000  )

     Band symmetry, C_s (m)     point group:

     e(  1 -  1) =    -10.85430  eV     1   --> A'             
     e(  2 -  2) =     -9.29596  eV     1   --> A'             
     e(  3 -  3) =     -5.34111  eV     1   --> A'             
     e(  4 -  4) =     -2.62588  eV     1   --> A''            
     e(  5 -  5) =     -1.06359  eV     1   --> A''            
     e(  6 -  6) =     -0.40109  eV     1   --> A'             
     e(  7 -  7) =      3.94416  eV     1   --> A''            
     e(  8 -  8) =      4.18102  eV     1   --> A'             

 **************************************************************************

 **************************************************************************

                    xk=(   0.55418,   0.19485,   0.00000  )

     Band symmetry, C_s (m)     point group:

     e(  1 -  1) =    -10.83841  eV     1   --> A'             
     e(  2 -  2) =     -9.29912  eV     1   --> A'             
     e(  3 -  3) =     -5.40685  eV     1   --> A'             
     e(  4 -  4) =     -2.61052  eV     1   --> A''            
     e(  5 -  5) =     -1.06852  eV     1   --> A''            
     e(  6 -  6) =     -0.29248  eV     1   --> A'             
     e(  7 -  7) =      3.84437  eV     1   --> A''            
     e(  8 -  8) =      4.19057  eV     1   --> A'             

 **************************************************************************

 **************************************************************************

                    xk=(   0.55834,   0.18764,   0.00000  )

     Band symmetry, C_s (m)     point group:

     e(  1 -  1) =    -10.82125  eV     1   --> A'             
     e(  2 -  2) =     -9.30290  eV     1   --> A'             
     e(  3 -  3) =     -5.47385  eV     1   --> A'             
     e(  4 -  4) =     -2.59393  eV     1   --> A''            
     e(  5 -  5) =     -1.07420  eV     1   --> A''            
     e(  6 -  6) =     -0.17888  eV     1   --> A'             
     e(  7 -  7) =      3.74679  eV     1   --> A''            
     e(  8 -  8) =      4.20050  eV     1   --> A'             

 **************************************************************************

 **************************************************************************

                    xk=(   0.56251,   0.18042,   0.00000  )

     Band symmetry, C_s (m)     point group:

     e(  1 -  1) =    -10.80282  eV     1   --> A'             
     e(  2 -  2) =     -9.30738  eV     1   --> A'             
     e(  3 -  3) =     -5.54162  eV     1   --> A'             
     e(  4 -  4) =     -2.57612  eV     1   --> A''            
     e(  5 -  5) =     -1.08069  eV     1   --> A''            
     e(  6 -  6) =     -0.06070  eV     1   --> A'             
     e(  7 -  7) =      3.65160  eV     1   --> A''            
     e(  8 -  8) =      4.21072  eV     1   --> A'             

 **************************************************************************

 **************************************************************************

                    xk=(   0.56668,   0.17320,   0.00000  )

     Band symmetry, C_s (m)     point group:

     e(  1 -  1) =    -10.78313  eV     1   --> A'             
     e(  2 -  2) =     -9.31267  eV     1   --> A'             
     e(  3 -  3) =     -5.60970  eV     1   --> A'             
     e(  4 -  4) =     -2.55708  eV     1   --> A''            
     e(  5 -  5) =     -1.08807  eV     1   --> A''            
     e(  6 -  6) =      0.06166  eV     1   --> A'             
     e(  7 -  7) =      3.55896  eV     1   --> A''            
     e(  8 -  8) =      4.22107  eV     1   --> A'             

 **************************************************************************

 **************************************************************************

                    xk=(   0.57084,   0.16599,   0.00000  )

     Band symmetry, C_s (m)     point group:

     e(  1 -  1) =    -10.76217  eV     1   --> A'             
     e(  2 -  2) =     -9.31885  eV     1   --> A'             
     e(  3 -  3) =     -5.67765  eV     1   --> A'             
     e(  4 -  4) =     -2.53681  eV     1   --> A''            
     e(  5 -  5) =     -1.09644  eV     1   --> A''            
     e(  6 -  6) =      0.18787  eV     1   --> A'             
     e(  7 -  7) =      3.46904  eV     1   --> A''            
     e(  8 -  8) =      4.23141  eV     1   --> A'             

 **************************************************************************

 **************************************************************************

                    xk=(   0.57501,   0.15877,   0.00000  )

     Band symmetry, C_s (m)     point group:

     e(  1 -  1) =    -10.73995  eV     1   --> A'             
     e(  2 -  2) =     -9.32603  eV     1   --> A'             
     e(  3 -  3) =     -5.74509  eV     1   --> A'             
     e(  4 -  4) =     -2.51532  eV     1   --> A''            
     e(  5 -  5) =     -1.10588  eV     1   --> A''            
     e(  6 -  6) =      0.31761  eV     1   --> A'             
     e(  7 -  7) =      3.38197  eV     1   --> A''            
     e(  8 -  8) =      4.24155  eV     1   --> A'             

 **************************************************************************

 **************************************************************************

                    xk=(   0.57918,   0.15155,   0.00000  )

     Band symmetry, C_s (m)     point group:

     e(  1 -  1) =    -10.71646  eV     1   --> A'             
     e(  2 -  2) =     -9.33434  eV     1   --> A'             
     e(  3 -  3) =     -5.81165  eV     1   --> A'             
     e(  4 -  4) =     -2.49260  eV     1   --> A''            
     e(  5 -  5) =     -1.11649  eV     1   --> A''            
     e(  6 -  6) =      0.45058  eV     1   --> A'             
     e(  7 -  7) =      3.29792  eV     1   --> A''            
     e(  8 -  8) =      4.25126  eV     1   --> A'             

 **************************************************************************

 **************************************************************************

                    xk=(   0.58335,   0.14434,   0.00000  )

     Band symmetry, C_s (m)     point group:

     e(  1 -  1) =    -10.69171  eV     1   --> A'             
     e(  2 -  2) =     -9.34386  eV     1   --> A'             
     e(  3 -  3) =     -5.87696  eV     1   --> A'             
     e(  4 -  4) =     -2.46867  eV     1   --> A''            
     e(  5 -  5) =     -1.12835  eV     1   --> A''            
     e(  6 -  6) =      0.58654  eV     1   --> A'             
     e(  7 -  7) =      3.21702  eV     1   --> A''            
     e(  8 -  8) =      4.26029  eV     1   --> A'             

 **************************************************************************

 **************************************************************************

                    xk=(   0.58751,   0.13712,   0.00000  )

     Band symmetry, C_s (m)     point group:

     e(  1 -  1) =    -10.66570  eV     1   --> A'             
     e(  2 -  2) =     -9.35474  eV     1   --> A'             
     e(  3 -  3) =     -5.94073  eV     1   --> A'             
     e(  4 -  4) =     -2.44351  eV     1   --> A''            
     e(  5 -  5) =     -1.14157  eV     1   --> A''            
     e(  6 -  6) =      0.72524  eV     1   --> A'             
     e(  7 -  7) =      3.13941  eV     1   --> A''            
     e(  8 -  8) =      4.26835  eV     1   --> A'             

 **************************************************************************

 **************************************************************************

                    xk=(   0.59168,   0.12990,   0.00000  )

     Band symmetry, C_s (m)     point group:

     e(  1 -  1) =    -10.63843  eV     1   --> A'             
     e(  2 -  2) =     -9.36708  eV     1   --> A'             
     e(  3 -  3) =     -6.00263  eV     1   --> A'             
     e(  4 -  4) =     -2.41712  eV     1   --> A''            
     e(  5 -  5) =     -1.15624  eV     1   --> A''            
     e(  6 -  6) =      0.86645  eV     1   --> A'             
     e(  7 -  7) =      3.06523  eV     1   --> A''            
     e(  8 -  8) =      4.27507  eV     1   --> A'             

 **************************************************************************

 **************************************************************************

                    xk=(   0.59585,   0.12269,   0.00000  )

     Band symmetry, C_s (m)     point group:

     e(  1 -  1) =    -10.60991  eV     1   --> A'             
     e(  2 -  2) =     -9.38101  eV     1   --> A'             
     e(  3 -  3) =     -6.06239  eV     1   --> A'             
     e(  4 -  4) =     -2.38952  eV     1   --> A''            
     e(  5 -  5) =     -1.17244  eV     1   --> A''            
     e(  6 -  6) =      1.00998  eV     1   --> A'             
     e(  7 -  7) =      2.99459  eV     1   --> A''            
     e(  8 -  8) =      4.28006  eV     1   --> A'             

 **************************************************************************

 **************************************************************************

                    xk=(   0.60001,   0.11547,   0.00000  )

     Band symmetry, C_s (m)     point group:

     e(  1 -  1) =    -10.58012  eV     1   --> A'             
     e(  2 -  2) =     -9.39665  eV     1   --> A'             
     e(  3 -  3) =     -6.11975  eV     1   --> A'             
     e(  4 -  4) =     -2.36070  eV     1   --> A''            
     e(  5 -  5) =     -1.19028  eV     1   --> A''            
     e(  6 -  6) =      1.15563  eV     1   --> A'             
     e(  7 -  7) =      2.92762  eV     1   --> A''            
     e(  8 -  8) =      4.28286  eV     1   --> A'             

 **************************************************************************

 **************************************************************************

                    xk=(   0.60418,   0.10825,   0.00000  )

     Band symmetry, C_s (m)     point group:

     e(  1 -  1) =    -10.54909  eV     1   --> A'             
     e(  2 -  2) =     -9.41410  eV     1   --> A'             
     e(  3 -  3) =     -6.17447  eV     1   --> A'             
     e(  4 -  4) =     -2.33066  eV     1   --> A''            
     e(  5 -  5) =     -1.20984  eV     1   --> A''            
     e(  6 -  6) =      1.30320  eV     1   --> A'             
     e(  7 -  7) =      2.86443  eV     1   --> A''            
     e(  8 -  8) =      4.28298  eV     1   --> A'             

 **************************************************************************

 **************************************************************************

                    xk=(   0.60835,   0.10104,   0.00000  )

     Band symmetry, C_s (m)     point group:

     e(  1 -  1) =    -10.51679  eV     1   --> A'             
     e(  2 -  2) =     -9.43348  eV     1   --> A'             
     e(  3 -  3) =     -6.22632  eV     1   --> A'             
     e(  4 -  4) =     -2.29940  eV     1   --> A''            
     e(  5 -  5) =     -1.23118  eV     1   --> A''            
     e(  6 -  6) =      1.45251  eV     1   --> A'             
     e(  7 -  7) =      2.80512  eV     1   --> A''            
     e(  8 -  8) =      4.27987  eV     1   --> A'             

 **************************************************************************

 **************************************************************************

                    xk=(   0.61251,   0.09382,   0.00000  )

     Band symmetry, C_s (m)     point group:

     e(  1 -  1) =    -10.48325  eV     1   --> A'             
     e(  2 -  2) =     -9.45489  eV     1   --> A'             
     e(  3 -  3) =     -6.27511  eV     1   --> A'             
     e(  4 -  4) =     -2.26693  eV     1   --> A''            
     e(  5 -  5) =     -1.25439  eV     1   --> A''            
     e(  6 -  6) =      1.60336  eV     1   --> A'             
     e(  7 -  7) =      2.74979  eV     1   --> A''            
     e(  8 -  8) =      4.27298  eV     1   --> A'             

 **************************************************************************

 **************************************************************************

                    xk=(   0.61668,   0.08660,   0.00000  )

     Band symmetry, C_s (m)     point group:

     e(  1 -  1) =    -10.44845  eV     1   --> A'             
     e(  2 -  2) =     -9.47840  eV     1   --> A'             
     e(  3 -  3) =     -6.32065  eV     1   --> A'             
     e(  4 -  4) =     -2.23324  eV     1   --> A''            
     e(  5 -  5) =     -1.27952  eV     1   --> A''            
     e(  6 -  6) =      1.75556  eV     1   --> A'             
     e(  7 -  7) =      2.69851  eV     1   --> A''            
     e(  8 -  8) =      4.26178  eV     1   --> A'             

 **************************************************************************

 **************************************************************************

                    xk=(   0.62085,   0.07939,   0.00000  )

     Band symmetry, C_s (m)     point group:

     e(  1 -  1) =    -10.41241  eV     1   --> A'             
     e(  2 -  2) =     -9.50410  eV     1   --> A'             
     e(  3 -  3) =     -6.36280  eV     1   --> A'             
     e(  4 -  4) =     -2.19833  eV     1   --> A''            
     e(  5 -  5) =     -1.30661  eV     1   --> A''            
[...]
     e(  3 -  3) =     -4.38665  eV     1   --> A''            
     e(  4 -  4) =     -4.31104  eV     1   --> A'             
     e(  5 -  5) =      0.70799  eV     1   --> A'             
     e(  6 -  6) =      0.80682  eV     1   --> A'             
     e(  7 -  7) =      1.81951  eV     1   --> A'             
     e(  8 -  8) =      2.33546  eV     1   --> A''            

 **************************************************************************

 **************************************************************************

                    xk=(   0.21905,   0.00000,   0.00000  )

     Band symmetry, C_s (m)     point group:

     e(  1 -  1) =    -12.70573  eV     1   --> A'             
     e(  2 -  2) =     -5.63327  eV     1   --> A'             
     e(  3 -  3) =     -4.42157  eV     1   --> A''            
     e(  4 -  4) =     -4.25459  eV     1   --> A'             
     e(  5 -  5) =      0.66374  eV     1   --> A'             
     e(  6 -  6) =      0.79337  eV     1   --> A'             
     e(  7 -  7) =      1.77902  eV     1   --> A'             
     e(  8 -  8) =      2.44955  eV     1   --> A''            

 **************************************************************************

 **************************************************************************

                    xk=(   0.20953,   0.00000,   0.00000  )

     Band symmetry, C_s (m)     point group:

     e(  1 -  1) =    -12.74008  eV     1   --> A'             
     e(  2 -  2) =     -5.51521  eV     1   --> A'             
     e(  3 -  3) =     -4.45507  eV     1   --> A''            
     e(  4 -  4) =     -4.19966  eV     1   --> A'             
     e(  5 -  5) =      0.61981  eV     1   --> A'             
     e(  6 -  6) =      0.78198  eV     1   --> A'             
     e(  7 -  7) =      1.74023  eV     1   --> A'             
     e(  8 -  8) =      2.56389  eV     1   --> A''            

 **************************************************************************

 **************************************************************************

                    xk=(   0.20000,   0.00000,   0.00000  )

     Band symmetry, C_s (m)     point group:

     e(  1 -  1) =    -12.77297  eV     1   --> A'             
     e(  2 -  2) =     -5.39694  eV     1   --> A'             
     e(  3 -  3) =     -4.48714  eV     1   --> A''            
     e(  4 -  4) =     -4.14636  eV     1   --> A'             
     e(  5 -  5) =      0.57602  eV     1   --> A'             
     e(  6 -  6) =      0.77259  eV     1   --> A'             
     e(  7 -  7) =      1.70314  eV     1   --> A'             
     e(  8 -  8) =      2.53959  eV     1   --> A'             

 **************************************************************************

 **************************************************************************

                    xk=(   0.19048,   0.00000,   0.00000  )

     Band symmetry, C_s (m)     point group:

     e(  1 -  1) =    -12.80437  eV     1   --> A'             
     e(  2 -  2) =     -5.27864  eV     1   --> A'             
     e(  3 -  3) =     -4.51777  eV     1   --> A''            
     e(  4 -  4) =     -4.09479  eV     1   --> A'             
     e(  5 -  5) =      0.53214  eV     1   --> A'             
     e(  6 -  6) =      0.76514  eV     1   --> A'             
     e(  7 -  7) =      1.66774  eV     1   --> A'             
     e(  8 -  8) =      2.38264  eV     1   --> A'             

 **************************************************************************

 **************************************************************************

                    xk=(   0.18096,   0.00000,   0.00000  )

     Band symmetry, C_s (m)     point group:

     e(  1 -  1) =    -12.83429  eV     1   --> A'             
     e(  2 -  2) =     -5.16046  eV     1   --> A'             
     e(  3 -  3) =     -4.54695  eV     1   --> A''            
     e(  4 -  4) =     -4.04509  eV     1   --> A'             
     e(  5 -  5) =      0.48788  eV     1   --> A'             
     e(  6 -  6) =      0.75955  eV     1   --> A'             
     e(  7 -  7) =      1.63406  eV     1   --> A'             
     e(  8 -  8) =      2.22996  eV     1   --> A'             

 **************************************************************************

 **************************************************************************

                    xk=(   0.17143,   0.00000,   0.00000  )

     Band symmetry, C_s (m)     point group:

     e(  1 -  1) =    -12.86271  eV     1   --> A'             
     e(  2 -  2) =     -5.04263  eV     1   --> A'             
     e(  3 -  3) =     -4.57467  eV     1   --> A''            
     e(  4 -  4) =     -3.99734  eV     1   --> A'             
     e(  5 -  5) =      0.44294  eV     1   --> A'             
     e(  6 -  6) =      0.75573  eV     1   --> A'             
     e(  7 -  7) =      1.60208  eV     1   --> A'             
     e(  8 -  8) =      2.08214  eV     1   --> A'             

 **************************************************************************

 **************************************************************************

                    xk=(   0.16191,   0.00000,   0.00000  )

     Band symmetry, C_s (m)     point group:

     e(  1 -  1) =    -12.88964  eV     1   --> A'             
     e(  2 -  2) =     -4.92537  eV     1   --> A'             
     e(  3 -  3) =     -4.60092  eV     1   --> A''            
     e(  4 -  4) =     -3.95165  eV     1   --> A'             
     e(  5 -  5) =      0.39695  eV     1   --> A'             
     e(  6 -  6) =      0.75355  eV     1   --> A'             
     e(  7 -  7) =      1.57182  eV     1   --> A'             
     e(  8 -  8) =      1.93980  eV     1   --> A'             

 **************************************************************************

 **************************************************************************

                    xk=(   0.15238,   0.00000,   0.00000  )

     Band symmetry, C_s (m)     point group:

     e(  1 -  1) =    -12.91505  eV     1   --> A'             
     e(  2 -  2) =     -4.80895  eV     1   --> A'             
     e(  3 -  3) =     -4.62571  eV     1   --> A''            
     e(  4 -  4) =     -3.90811  eV     1   --> A'             
     e(  5 -  5) =      0.34951  eV     1   --> A'             
     e(  6 -  6) =      0.75290  eV     1   --> A'             
     e(  7 -  7) =      1.54328  eV     1   --> A'             
     e(  8 -  8) =      1.80368  eV     1   --> A'             

 **************************************************************************

 **************************************************************************

                    xk=(   0.14286,   0.00000,   0.00000  )

     Band symmetry, C_s (m)     point group:

     e(  1 -  1) =    -12.93896  eV     1   --> A'             
     e(  2 -  2) =     -4.69371  eV     1   --> A'             
     e(  3 -  3) =     -4.64902  eV     1   --> A''            
     e(  4 -  4) =     -3.86682  eV     1   --> A'             
     e(  5 -  5) =      0.30018  eV     1   --> A'             
     e(  6 -  6) =      0.75363  eV     1   --> A'             
     e(  7 -  7) =      1.51645  eV     1   --> A'             
     e(  8 -  8) =      1.67453  eV     1   --> A'             

 **************************************************************************

 **************************************************************************

                    xk=(   0.13334,   0.00000,   0.00000  )

     Band symmetry, C_s (m)     point group:

     e(  1 -  1) =    -12.96135  eV     1   --> A'             
     e(  2 -  2) =     -4.67085  eV     1   --> A''            
     e(  3 -  3) =     -4.58000  eV     1   --> A'             
     e(  4 -  4) =     -3.82785  eV     1   --> A'             
     e(  5 -  5) =      0.24857  eV     1   --> A'             
     e(  6 -  6) =      0.75560  eV     1   --> A'             
     e(  7 -  7) =      1.49134  eV     1   --> A'             
     e(  8 -  8) =      1.55317  eV     1   --> A'             

 **************************************************************************

 **************************************************************************

                    xk=(   0.12381,   0.00000,   0.00000  )

     Band symmetry, C_s (m)     point group:

     e(  1 -  1) =    -12.98221  eV     1   --> A'             
     e(  2 -  2) =     -4.69120  eV     1   --> A''            
     e(  3 -  3) =     -4.46826  eV     1   --> A'             
     e(  4 -  4) =     -3.79129  eV     1   --> A'             
     e(  5 -  5) =      0.19433  eV     1   --> A'             
     e(  6 -  6) =      0.75863  eV     1   --> A'             
     e(  7 -  7) =      1.44040  eV     1   --> A'             
     e(  8 -  8) =      1.46795  eV     1   --> A'             

 **************************************************************************

 **************************************************************************

                    xk=(   0.11429,   0.00000,   0.00000  )

     Band symmetry, C_s (m)     point group:

     e(  1 -  1) =    -13.00154  eV     1   --> A'             
     e(  2 -  2) =     -4.71005  eV     1   --> A''            
     e(  3 -  3) =     -4.35899  eV     1   --> A'             
     e(  4 -  4) =     -3.75719  eV     1   --> A'             
     e(  5 -  5) =      0.13727  eV     1   --> A'             
     e(  6 -  6) =      0.76254  eV     1   --> A'             
     e(  7 -  7) =      1.33693  eV     1   --> A'             
     e(  8 -  8) =      1.44629  eV     1   --> A'             

 **************************************************************************

 **************************************************************************

                    xk=(   0.10476,   0.00000,   0.00000  )

     Band symmetry, C_s (m)     point group:

     e(  1 -  1) =    -13.01935  eV     1   --> A'             
     e(  2 -  2) =     -4.72741  eV     1   --> A''            
     e(  3 -  3) =     -4.25279  eV     1   --> A'             
     e(  4 -  4) =     -3.72563  eV     1   --> A'             
     e(  5 -  5) =      0.07746  eV     1   --> A'             
     e(  6 -  6) =      0.76716  eV     1   --> A'             
     e(  7 -  7) =      1.24332  eV     1   --> A'             
     e(  8 -  8) =      1.42636  eV     1   --> A'             

 **************************************************************************

 **************************************************************************

                    xk=(   0.09524,   0.00000,   0.00000  )

     Band symmetry, C_s (m)     point group:

     e(  1 -  1) =    -13.03561  eV     1   --> A'             
     e(  2 -  2) =     -4.74328  eV     1   --> A''            
     e(  3 -  3) =     -4.15034  eV     1   --> A'             
     e(  4 -  4) =     -3.69665  eV     1   --> A'             
     e(  5 -  5) =      0.01526  eV     1   --> A'             
     e(  6 -  6) =      0.77228  eV     1   --> A'             
     e(  7 -  7) =      1.15990  eV     1   --> A'             
     e(  8 -  8) =      1.40815  eV     1   --> A'             

 **************************************************************************

 **************************************************************************

                    xk=(   0.08572,   0.00000,   0.00000  )

     Band symmetry, C_s (m)     point group:

     e(  1 -  1) =    -13.05034  eV     1   --> A'             
     e(  2 -  2) =     -4.75764  eV     1   --> A''            
     e(  3 -  3) =     -4.05245  eV     1   --> A'             
     e(  4 -  4) =     -3.67031  eV     1   --> A'             
     e(  5 -  5) =     -0.04855  eV     1   --> A'             
     e(  6 -  6) =      0.77770  eV     1   --> A'             
     e(  7 -  7) =      1.08671  eV     1   --> A'             
     e(  8 -  8) =      1.39167  eV     1   --> A'             

 **************************************************************************

 **************************************************************************

                    xk=(   0.07619,   0.00000,   0.00000  )

     Band symmetry, C_s (m)     point group:

     e(  1 -  1) =    -13.06353  eV     1   --> A'             
     e(  2 -  2) =     -4.77050  eV     1   --> A''            
     e(  3 -  3) =     -3.96002  eV     1   --> A'             
     e(  4 -  4) =     -3.64664  eV     1   --> A'             
     e(  5 -  5) =     -0.11281  eV     1   --> A'             
     e(  6 -  6) =      0.78322  eV     1   --> A'             
     e(  7 -  7) =      1.02351  eV     1   --> A'             
     e(  8 -  8) =      1.37692  eV     1   --> A'             

 **************************************************************************

 **************************************************************************

                    xk=(   0.06667,   0.00000,   0.00000  )

     Band symmetry, C_s (m)     point group:

     e(  1 -  1) =    -13.07517  eV     1   --> A'             
     e(  2 -  2) =     -4.78185  eV     1   --> A''            
     e(  3 -  3) =     -3.87410  eV     1   --> A'             
     e(  4 -  4) =     -3.62568  eV     1   --> A'             
     e(  5 -  5) =     -0.17601  eV     1   --> A'             
     e(  6 -  6) =      0.78865  eV     1   --> A'             
     e(  7 -  7) =      0.96986  eV     1   --> A'             
     e(  8 -  8) =      1.36390  eV     1   --> A'             

 **************************************************************************

 **************************************************************************

                    xk=(   0.05714,   0.00000,   0.00000  )

     Band symmetry, C_s (m)     point group:

     e(  1 -  1) =    -13.08526  eV     1   --> A'             
     e(  2 -  2) =     -4.79169  eV     1   --> A''            
     e(  3 -  3) =     -3.79583  eV     1   --> A'             
     e(  4 -  4) =     -3.60747  eV     1   --> A'             
     e(  5 -  5) =     -0.23639  eV     1   --> A'             
     e(  6 -  6) =      0.79380  eV     1   --> A'             
     e(  7 -  7) =      0.92514  eV     1   --> A'             
     e(  8 -  8) =      1.35262  eV     1   --> A'             

 **************************************************************************

 **************************************************************************

                    xk=(   0.04762,   0.00000,   0.00000  )

     Band symmetry, C_s (m)     point group:

     e(  1 -  1) =    -13.09380  eV     1   --> A'             
     e(  2 -  2) =     -4.80002  eV     1   --> A''            
     e(  3 -  3) =     -3.72646  eV     1   --> A'             
     e(  4 -  4) =     -3.59202  eV     1   --> A'             
     e(  5 -  5) =     -0.29201  eV     1   --> A'             
     e(  6 -  6) =      0.79849  eV     1   --> A'             
     e(  7 -  7) =      0.88868  eV     1   --> A'             
     e(  8 -  8) =      1.34307  eV     1   --> A'             

 **************************************************************************

 **************************************************************************

                    xk=(   0.03810,   0.00000,   0.00000  )

     Band symmetry, C_s (m)     point group:

     e(  1 -  1) =    -13.10080  eV     1   --> A'             
     e(  2 -  2) =     -4.80684  eV     1   --> A''            
     e(  3 -  3) =     -3.66730  eV     1   --> A'             
     e(  4 -  4) =     -3.57935  eV     1   --> A'             
     e(  5 -  5) =     -0.34092  eV     1   --> A'             
     e(  6 -  6) =      0.80256  eV     1   --> A'             
     e(  7 -  7) =      0.85983  eV     1   --> A'             
     e(  8 -  8) =      1.33525  eV     1   --> A'             

 **************************************************************************

 **************************************************************************

                    xk=(   0.02857,   0.00000,   0.00000  )

     Band symmetry, C_s (m)     point group:

     e(  1 -  1) =    -13.10624  eV     1   --> A'             
     e(  2 -  2) =     -4.81215  eV     1   --> A''            
     e(  3 -  3) =     -3.61962  eV     1   --> A'             
     e(  4 -  4) =     -3.56948  eV     1   --> A'             
     e(  5 -  5) =     -0.38126  eV     1   --> A'             
     e(  6 -  6) =      0.80588  eV     1   --> A'             
     e(  7 -  7) =      0.83802  eV     1   --> A'             
     e(  8 -  8) =      1.32917  eV     1   --> A'             

 **************************************************************************

 **************************************************************************

                    xk=(   0.01905,   0.00000,   0.00000  )

     Band symmetry, C_s (m)     point group:

     e(  1 -  1) =    -13.11012  eV     1   --> A'             
     e(  2 -  2) =     -4.81593  eV     1   --> A''            
     e(  3 -  3) =     -3.58459  eV     1   --> A'             
     e(  4 -  4) =     -3.56243  eV     1   --> A'             
     e(  5 -  5) =     -0.41139  eV     1   --> A'             
     e(  6 -  6) =      0.80833  eV     1   --> A'             
     e(  7 -  7) =      0.82278  eV     1   --> A'             
     e(  8 -  8) =      1.32483  eV     1   --> A'             

 **************************************************************************

 **************************************************************************

                    xk=(   0.00952,   0.00000,   0.00000  )

     Band symmetry, C_s (m)     point group:

     e(  1 -  1) =    -13.11246  eV     1   --> A'             
     e(  2 -  2) =     -4.81821  eV     1   --> A''            
     e(  3 -  3) =     -3.56315  eV     1   --> A'             
     e(  4 -  4) =     -3.55819  eV     1   --> A'             
     e(  5 -  5) =     -0.43002  eV     1   --> A'             
     e(  6 -  6) =      0.80984  eV     1   --> A'             
     e(  7 -  7) =      0.81377  eV     1   --> A'             
     e(  8 -  8) =      1.32222  eV     1   --> A'             

 **************************************************************************

 **************************************************************************

                    xk=(   0.00000,   0.00000,   0.00000  )

     point group C_2v (mm2) 
     there are  4 classes
     the character table:

       E     C2    s_v   s_v' 
A_1    1.00  1.00  1.00  1.00
A_2    1.00  1.00 -1.00 -1.00
B_1    1.00 -1.00  1.00 -1.00
B_2    1.00 -1.00 -1.00  1.00

     the symmetry operations in each class and the name of the first element:

     E        1
                                                                 
     C2       2
                                                                 
     s_v      3
                                                                 
     s_v'     4
                                                                 

     Band symmetry, C_2v (mm2)  point group:

     e(  1 -  1) =    -13.11323  eV     1   --> A_1  D_1  S_1  
     e(  2 -  2) =     -4.81897  eV     1   --> B_2  D_4  S_4  
     e(  3 -  3) =     -3.55678  eV     1   --> A_1  D_1  S_1  
     e(  4 -  4) =     -3.55593  eV     1   --> B_1  D_3  S_3  
     e(  5 -  5) =     -0.43632  eV     1   --> A_1  D_1  S_1  
     e(  6 -  6) =      0.81034  eV     1   --> B_1  D_3  S_3  
     e(  7 -  7) =      0.81080  eV     1   --> A_1  D_1  S_1  
     e(  8 -  8) =      1.32136  eV     1   --> A_1  D_1  S_1  

 **************************************************************************

     BANDS        :     38.22s CPU     40.01s WALL


   This run was terminated on:   1: 0: 7  26Sep2023            

=------------------------------------------------------------------------------=
   JOB DONE.
=------------------------------------------------------------------------------=
