### Running on host: LAPTOP-C0A2DPIS

     Program PWSCF v.6.4.1 starts on 22Sep2023 at 21:44:32 

     This program is part of the open-source Quantum ESPRESSO suite
     for quantum simulation of materials; please cite
         "P. Giannozzi et al., J. Phys.:Condens. Matter 21 395502 (2009);
         "P. Giannozzi et al., J. Phys.:Condens. Matter 29 465901 (2017);
          URL http://www.quantum-espresso.org", 
     in publications or presentations arising from this work. More details at
     http://www.quantum-espresso.org/quote

     Parallel version (MPI), running on     1 processors

     MPI processes distributed on     1 nodes
     Reading input from silicene_scf_kpoints-2.in

     Current dimensions of program PWSCF are:
     Max number of different atomic species (ntypx) = 10
     Max number of k-points (npk) =  40000
     Max angular momentum in pseudopotentials (lmaxx) =  3
     Message from routine read_upf::
     Pseudo file Si.pbe-n-rrkjus_psl.1.0.0.UPF has been fixed on the fly.
To avoid this message in the future, permanently fix 
 your pseudo files following these instructions: 
https://gitlab.com/QEF/q-e/blob/master/upftools/how_to_fix_upf.md

     Subspace diagonalization in iterative solution of the eigenvalue problem:
     a serial algorithm will be used

     Message from routine setup:
     DEPRECATED: symmetry with ibrav=0, use correct ibrav instead

     G-vector sticks info
     --------------------
     sticks:   dense  smooth     PW     G-vecs:    dense   smooth      PW
     Sum         859     433    151                64713    22975    4467



     bravais-lattice index     =            0
     lattice parameter (alat)  =       7.2375  a.u.
     unit-cell volume          =    1032.2806 (a.u.)^3
     number of atoms/cell      =            2
     number of atomic types    =            1
     number of electrons       =         8.00
     number of Kohn-Sham states=            8
     kinetic-energy cutoff     =      30.0000  Ry
     charge density cutoff     =     240.0000  Ry
     convergence threshold     =      4.0E-10
     mixing beta               =       0.4000
     number of iterations used =            8  plain     mixing
     Exchange-correlation      = PBE ( 1  4  3  4 0 0)

     celldm(1)=   7.237514  celldm(2)=   0.000000  celldm(3)=   0.000000
     celldm(4)=   0.000000  celldm(5)=   0.000000  celldm(6)=   0.000000

     crystal axes: (cart. coord. in units of alat)
               a(1) = (   0.502620  -0.864507   0.000000 )  
               a(2) = (   0.502620   0.864507   0.000000 )  
               a(3) = (   0.000000   0.000000   3.133218 )  

     reciprocal axes: (cart. coord. in units 2 pi/alat)
               b(1) = (  0.994786 -0.578364  0.000000 )  
               b(2) = (  0.994786  0.578364 -0.000000 )  
               b(3) = ( -0.000000  0.000000  0.319161 )  


     PseudoPot. # 1 for Si read from file:
     /home/meyn/q-e-qe-7.1/pseudo/Si.pbe-n-rrkjus_psl.1.0.0.UPF
     MD5 check sum: 56671f82560c68743c116fe4c72cdc4c
     Pseudo is Ultrasoft + core correction, Zval =  4.0
     Generated using "atomic" code by A. Dal Corso v.5.1.2
     Using radial grid of 1141 points,  6 beta functions with: 
                l(1) =   0
                l(2) =   0
                l(3) =   1
                l(4) =   1
                l(5) =   2
                l(6) =   2
     Q(r) pseudized with 0 coefficients 


     atomic species   valence    mass     pseudopotential
        Si             4.00    28.08550     Si( 1.00)

      4 Sym. Ops. (no inversion) found


                                    s                        frac. trans.

      isym =  1     identity                                     

 cryst.   s( 1) = (     1          0          0      )
                  (     0          1          0      )
                  (     0          0          1      )

 cart.    s( 1) = (  1.0000000  0.0000000  0.0000000 )
                  (  0.0000000  1.0000000  0.0000000 )
                  (  0.0000000  0.0000000  1.0000000 )


      isym =  2     180 deg rotation - cart. axis [0,1,0]        

 cryst.   s( 2) = (     0         -1          0      )
                  (    -1          0          0      )
                  (     0          0         -1      )

 cart.    s( 2) = ( -1.0000000  0.0000000  0.0000000 )
                  (  0.0000000  1.0000000  0.0000000 )
                  (  0.0000000  0.0000000 -1.0000000 )


      isym =  3     inv. 180 deg rotation - cart. axis [0,0,1]   

 cryst.   s( 3) = (     1          0          0      )
                  (     0          1          0      )
                  (     0          0         -1      )

 cart.    s( 3) = (  1.0000000  0.0000000  0.0000000 )
                  (  0.0000000  1.0000000  0.0000000 )
                  (  0.0000000  0.0000000 -1.0000000 )


      isym =  4     inv. 180 deg rotation - cart. axis [1,0,0]   

 cryst.   s( 4) = (     0         -1          0      )
                  (    -1          0          0      )
                  (     0          0          1      )

 cart.    s( 4) = ( -1.0000000  0.0000000  0.0000000 )
                  (  0.0000000  1.0000000  0.0000000 )
                  (  0.0000000  0.0000000  1.0000000 )


   Cartesian axes

     site n.     atom                  positions (alat units)
         1           Si  tau(   1) = (   0.0000000   0.0000000   0.0000000  )
         2           Si  tau(   2) = (   0.5026205   0.2939324   0.0000000  )

   Crystallographic axes

     site n.     atom                  positions (cryst. coord.)
         1           Si  tau(   1) = (  0.0000000  0.0000000  0.0000000  )
         2           Si  tau(   2) = (  0.3300000  0.6700000  0.0000000  )

     number of k points=     3  Marzari-Vanderbilt smearing, width (Ry)=  0.0147
                       cart. coord. in units 2pi/alat
        k(    1) = (   0.0000000   0.0000000   0.0000000), wk =   0.5000000
        k(    2) = (  -0.4973932  -0.2891821   0.0000000), wk =   1.0000000
        k(    3) = (  -0.9947864   0.0000000   0.0000000), wk =   0.5000000

                       cryst. coord.
        k(    1) = (   0.0000000   0.0000000   0.0000000), wk =   0.5000000
        k(    2) = (   0.0000000  -0.5000000   0.0000000), wk =   1.0000000
        k(    3) = (  -0.5000000  -0.5000000   0.0000000), wk =   0.5000000

     Dense  grid:    64713 G-vectors     FFT dimensions: (  36,  36, 120)

     Smooth grid:    22975 G-vectors     FFT dimensions: (  25,  25,  80)

     Dynamical RAM for                 wfc:       0.35 MB

     Dynamical RAM for     wfc (w. buffer):       1.40 MB

     Dynamical RAM for           str. fact:       0.99 MB

     Dynamical RAM for           local pot:       0.00 MB

     Dynamical RAM for          nlocal pot:       1.57 MB

     Dynamical RAM for                qrad:       1.43 MB

     Dynamical RAM for          rho,v,vnew:       6.52 MB

     Dynamical RAM for               rhoin:       2.17 MB

     Dynamical RAM for            rho*nmix:      15.80 MB

     Dynamical RAM for           G-vectors:       3.88 MB

     Dynamical RAM for          h,s,v(r/c):       0.05 MB

     Dynamical RAM for          <psi|beta>:       0.00 MB

     Dynamical RAM for                 psi:       1.40 MB

     Dynamical RAM for                hpsi:       1.40 MB

     Dynamical RAM for                spsi:       1.40 MB

     Dynamical RAM for      wfcinit/wfcrot:       0.70 MB

     Dynamical RAM for           addusdens:     185.64 MB

     Dynamical RAM for          addusforce:     188.12 MB

     Dynamical RAM for         addusstress:     198.48 MB

     Estimated static dynamical RAM per process >      41.67 MB

     Estimated max dynamical RAM per process >     240.15 MB

     Initial potential from superposition of free atoms

     starting charge    7.99888, renormalised to    8.00000

     negative rho (up, down):  3.014E-06 0.000E+00
     Starting wfcs are    8 randomized atomic wfcs

     total cpu time spent up to now is        1.5 secs

     Self-consistent Calculation

     iteration #  1     ecut=    30.00 Ry     beta= 0.40
     Davidson diagonalization with overlap
     ethr =  1.00E-02,  avg # of iterations =  5.0

     negative rho (up, down):  3.627E-07 0.000E+00

     total cpu time spent up to now is        2.1 secs

     total energy              =     -22.62077696 Ry
     Harris-Foulkes estimate   =     -22.65043220 Ry
     estimated scf accuracy    <       0.10896777 Ry

     iteration #  2     ecut=    30.00 Ry     beta= 0.40
     Davidson diagonalization with overlap
     ethr =  1.36E-03,  avg # of iterations =  1.0

     negative rho (up, down):  2.462E-06 0.000E+00

     total cpu time spent up to now is        2.6 secs

     total energy              =     -22.61762188 Ry
     Harris-Foulkes estimate   =     -22.62571765 Ry
     estimated scf accuracy    <       0.02625466 Ry

     iteration #  3     ecut=    30.00 Ry     beta= 0.40
     Davidson diagonalization with overlap
     ethr =  3.28E-04,  avg # of iterations =  3.3

     negative rho (up, down):  3.701E-06 0.000E+00

     total cpu time spent up to now is        3.1 secs

     total energy              =     -22.62040848 Ry
     Harris-Foulkes estimate   =     -22.62060341 Ry
     estimated scf accuracy    <       0.00104992 Ry

     iteration #  4     ecut=    30.00 Ry     beta= 0.40
     Davidson diagonalization with overlap
     ethr =  1.31E-05,  avg # of iterations =  3.0

     negative rho (up, down):  2.410E-06 0.000E+00

     total cpu time spent up to now is        3.6 secs

     total energy              =     -22.62055029 Ry
     Harris-Foulkes estimate   =     -22.62062316 Ry
     estimated scf accuracy    <       0.00011892 Ry

     iteration #  5     ecut=    30.00 Ry     beta= 0.40
     Davidson diagonalization with overlap
     ethr =  1.49E-06,  avg # of iterations =  2.0

     negative rho (up, down):  2.258E-06 0.000E+00

     total cpu time spent up to now is        4.2 secs

     total energy              =     -22.62057272 Ry
     Harris-Foulkes estimate   =     -22.62057158 Ry
     estimated scf accuracy    <       0.00000239 Ry

     iteration #  6     ecut=    30.00 Ry     beta= 0.40
     Davidson diagonalization with overlap
     ethr =  2.98E-08,  avg # of iterations =  2.0

     negative rho (up, down):  2.065E-06 0.000E+00

     total cpu time spent up to now is        4.7 secs

     total energy              =     -22.62057320 Ry
     Harris-Foulkes estimate   =     -22.62057321 Ry
     estimated scf accuracy    <       0.00000035 Ry

     iteration #  7     ecut=    30.00 Ry     beta= 0.40
     Davidson diagonalization with overlap
     ethr =  4.39E-09,  avg # of iterations =  1.7

     negative rho (up, down):  2.013E-06 0.000E+00

     total cpu time spent up to now is        5.2 secs

     total energy              =     -22.62057321 Ry
     Harris-Foulkes estimate   =     -22.62057322 Ry
     estimated scf accuracy    <       0.00000008 Ry

     iteration #  8     ecut=    30.00 Ry     beta= 0.40
     Davidson diagonalization with overlap
     ethr =  9.63E-10,  avg # of iterations =  2.0

     negative rho (up, down):  1.999E-06 0.000E+00

     total cpu time spent up to now is        5.7 secs

     total energy              =     -22.62057322 Ry
     Harris-Foulkes estimate   =     -22.62057322 Ry
     estimated scf accuracy    <          2.1E-09 Ry

     iteration #  9     ecut=    30.00 Ry     beta= 0.40
     Davidson diagonalization with overlap
     ethr =  2.57E-11,  avg # of iterations =  2.3

     negative rho (up, down):  1.992E-06 0.000E+00

     total cpu time spent up to now is        6.3 secs

     total energy              =     -22.62057323 Ry
     Harris-Foulkes estimate   =     -22.62057322 Ry
     estimated scf accuracy    <          1.6E-09 Ry

     iteration # 10     ecut=    30.00 Ry     beta= 0.40
     Davidson diagonalization with overlap
     ethr =  2.00E-11,  avg # of iterations =  1.3

     negative rho (up, down):  2.000E-06 0.000E+00

     total cpu time spent up to now is        6.8 secs

     End of self-consistent calculation

          k = 0.0000 0.0000 0.0000 (  2867 PWs)   bands (ev):

   -12.9909  -4.7185  -3.2120  -3.0808   0.3908   1.0167   1.2718   1.3798

     occupation numbers 
     1.0000   1.0000   1.0000   1.0000   0.0000   0.0000   0.0000   0.0000

          k =-0.4974-0.2892 0.0000 (  2876 PWs)   bands (ev):

   -10.7509  -9.0065  -4.5523  -2.5440  -0.7683  -0.7248   4.2802   4.8758

     occupation numbers 
     1.0000   1.0000   1.0000   1.0666   0.0000   0.0000   0.0000   0.0000

          k =-0.9948 0.0000 0.0000 (  2888 PWs)   bands (ev):

   -10.6264  -9.1510  -4.5543  -2.4393  -0.8835  -0.7506   4.3484   4.8602

     occupation numbers 
     1.0000   1.0000   1.0000   0.8669   0.0000   0.0000   0.0000   0.0000

     the Fermi energy is    -2.3088 ev

!    total energy              =     -22.62057322 Ry
     Harris-Foulkes estimate   =     -22.62057323 Ry
     estimated scf accuracy    <          6.4E-11 Ry

     The total energy is the sum of the following terms:

     one-electron contribution =     -39.46861034 Ry
     hartree contribution      =      21.12728625 Ry
     xc contribution           =     -12.26588510 Ry
     ewald contribution        =       7.98458886 Ry
     smearing contrib. (-TS)   =       0.00204711 Ry

     convergence has been achieved in  10 iterations

     negative rho (up, down):  2.000E-06 0.000E+00

     Forces acting on atoms (cartesian axes, Ry/au):

     atom    1 type  1   force =     0.00000000    0.01917156    0.00000000
     atom    2 type  1   force =     0.00000000   -0.01917156    0.00000000
     The non-local contrib.  to forces
     atom    1 type  1   force =     0.00000000    0.02708468    0.00000000
     atom    2 type  1   force =     0.00000000   -0.02713369    0.00000000
     The ionic contribution  to forces
     atom    1 type  1   force =    -0.00000000    0.06637603   -0.00000000
     atom    2 type  1   force =     0.00000000   -0.06637603   -0.00000000
     The local contribution  to forces
     atom    1 type  1   force =     0.00000000   -0.07115450    0.00000000
     atom    2 type  1   force =     0.00000000    0.07116791    0.00000000
     The core correction contribution to forces
     atom    1 type  1   force =    -0.00000000   -0.00315362    0.00000000
     atom    2 type  1   force =    -0.00000000    0.00314444    0.00000000
     The Hubbard contrib.    to forces
     atom    1 type  1   force =     0.00000000    0.00000000    0.00000000
     atom    2 type  1   force =     0.00000000    0.00000000    0.00000000
     The SCF correction term to forces
     atom    1 type  1   force =    -0.00000000   -0.00000361    0.00000000
     atom    2 type  1   force =    -0.00000000    0.00000324    0.00000000

     Total force =     0.027113     Total SCF correction =     0.000005


     Computing stress (Cartesian axis) and pressure


     negative rho (up, down):  2.000E-06 0.000E+00
          total   stress  (Ry/bohr**3)                   (kbar)     P=   23.35
   0.00021677   0.00000000   0.00000000         31.89      0.00      0.00
   0.00000000   0.00025986   0.00000000          0.00     38.23      0.00
   0.00000000   0.00000000  -0.00000038          0.00      0.00     -0.06

     kinetic stress (kbar)    567.18      0.00     -0.00
                                0.00    561.27     -0.00
                                0.00      0.00    659.67

     local   stress (kbar)  -6559.92     -0.00      0.00
                               -0.00  -6610.06     -0.00
                                0.00     -0.00   6837.76

     nonloc. stress (kbar)    439.12     -0.00     -0.00
                                0.00    446.41      0.00
                               -0.00      0.00    362.05

     hartree stress (kbar)   2922.77     -0.00      0.00
                               -0.00   2930.28      0.00
                                0.00      0.00  -2842.30

     exc-cor stress (kbar)    775.59      0.00      0.00
                                0.00    775.99     -0.00
                                0.00     -0.00    766.89

     corecor stress (kbar)  -1036.57     -0.00     -0.00
                               -0.00  -1037.51      0.00
                               -0.00      0.00  -1026.38

     ewald   stress (kbar)   2923.73      0.00     -0.00
                                0.00   2971.85     -0.00
                               -0.00     -0.00  -4757.74

     hubbard stress (kbar)      0.00      0.00      0.00
                                0.00      0.00      0.00
                                0.00      0.00      0.00

     london  stress (kbar)      0.00      0.00      0.00
                                0.00      0.00      0.00
                                0.00      0.00      0.00

     DFT-D3  stress (kbar)      0.00      0.00      0.00
                                0.00      0.00      0.00
                                0.00      0.00      0.00

     XDM     stress (kbar)      0.00      0.00      0.00
                                0.00      0.00      0.00
                                0.00      0.00      0.00

     dft-nl  stress (kbar)      0.00      0.00      0.00
                                0.00      0.00      0.00
                                0.00      0.00      0.00

     TS-vdW  stress (kbar)      0.00      0.00      0.00
                                0.00      0.00      0.00
                                0.00      0.00      0.00



     Writing output data file silicene.save/

     init_run     :      0.90s CPU      0.95s WALL (       1 calls)
     electrons    :      4.99s CPU      5.29s WALL (       1 calls)
     forces       :      0.55s CPU      0.58s WALL (       1 calls)
     stress       :      1.69s CPU      1.73s WALL (       1 calls)

     Called by init_run:
     wfcinit      :      0.04s CPU      0.04s WALL (       1 calls)
     wfcinit:atom :      0.00s CPU      0.00s WALL (       3 calls)
     wfcinit:wfcr :      0.03s CPU      0.03s WALL (       3 calls)
     potinit      :      0.18s CPU      0.20s WALL (       1 calls)
     hinit0       :      0.49s CPU      0.49s WALL (       1 calls)

     Called by electrons:
     c_bands      :      0.99s CPU      1.00s WALL (      10 calls)
     sum_band     :      1.77s CPU      1.94s WALL (      10 calls)
     v_of_rho     :      0.67s CPU      0.70s WALL (      11 calls)
     v_h          :      0.04s CPU      0.04s WALL (      11 calls)
     v_xc         :      0.74s CPU      0.77s WALL (      13 calls)
     newd         :      1.65s CPU      1.79s WALL (      11 calls)
     mix_rho      :      0.08s CPU      0.09s WALL (      10 calls)

     Called by c_bands:
     init_us_2    :      0.05s CPU      0.05s WALL (      69 calls)
     cegterg      :      0.82s CPU      0.83s WALL (      30 calls)

     Called by sum_band:
     sum_band:bec :      0.00s CPU      0.00s WALL (      30 calls)
     addusdens    :      1.55s CPU      1.71s WALL (      10 calls)

     Called by *egterg:
     h_psi        :      0.60s CPU      0.61s WALL (     104 calls)
     s_psi        :      0.09s CPU      0.09s WALL (     104 calls)
     g_psi        :      0.01s CPU      0.01s WALL (      71 calls)
     cdiaghg      :      0.01s CPU      0.01s WALL (     101 calls)
     cegterg:over :      0.06s CPU      0.06s WALL (      71 calls)
     cegterg:upda :      0.04s CPU      0.04s WALL (      71 calls)
     cegterg:last :      0.02s CPU      0.02s WALL (      30 calls)

     Called by h_psi:
     h_psi:pot    :      0.60s CPU      0.60s WALL (     104 calls)
     h_psi:calbec :      0.10s CPU      0.11s WALL (     104 calls)
     vloc_psi     :      0.40s CPU      0.40s WALL (     104 calls)
     add_vuspsi   :      0.09s CPU      0.09s WALL (     104 calls)

     General routines
     calbec       :      0.16s CPU      0.16s WALL (     149 calls)
     fft          :      0.45s CPU      0.46s WALL (     166 calls)
     ffts         :      0.01s CPU      0.01s WALL (      21 calls)
     fftw         :      0.39s CPU      0.39s WALL (    1480 calls)
     interpolate  :      0.04s CPU      0.04s WALL (      11 calls)

     Parallel routines

     PWSCF        :      8.66s CPU      9.09s WALL


   This run was terminated on:  21:44:42  22Sep2023            

=------------------------------------------------------------------------------=
   JOB DONE.
=------------------------------------------------------------------------------=
