### Running on host: LAPTOP-C0A2DPIS

     Program PWSCF v.6.4.1 starts on 22Sep2023 at 21:45:52 

     This program is part of the open-source Quantum ESPRESSO suite
     for quantum simulation of materials; please cite
         "P. Giannozzi et al., J. Phys.:Condens. Matter 21 395502 (2009);
         "P. Giannozzi et al., J. Phys.:Condens. Matter 29 465901 (2017);
          URL http://www.quantum-espresso.org", 
     in publications or presentations arising from this work. More details at
     http://www.quantum-espresso.org/quote

     Parallel version (MPI), running on     1 processors

     MPI processes distributed on     1 nodes
     Reading input from silicene_scf_kpoints-12.in

     Current dimensions of program PWSCF are:
     Max number of different atomic species (ntypx) = 10
     Max number of k-points (npk) =  40000
     Max angular momentum in pseudopotentials (lmaxx) =  3
     Message from routine read_upf::
     Pseudo file Si.pbe-n-rrkjus_psl.1.0.0.UPF has been fixed on the fly.
To avoid this message in the future, permanently fix 
 your pseudo files following these instructions: 
https://gitlab.com/QEF/q-e/blob/master/upftools/how_to_fix_upf.md

     Subspace diagonalization in iterative solution of the eigenvalue problem:
     a serial algorithm will be used

     Message from routine setup:
     DEPRECATED: symmetry with ibrav=0, use correct ibrav instead

     G-vector sticks info
     --------------------
     sticks:   dense  smooth     PW     G-vecs:    dense   smooth      PW
     Sum         859     433    151                64713    22975    4467



     bravais-lattice index     =            0
     lattice parameter (alat)  =       7.2375  a.u.
     unit-cell volume          =    1032.2806 (a.u.)^3
     number of atoms/cell      =            2
     number of atomic types    =            1
     number of electrons       =         8.00
     number of Kohn-Sham states=            8
     kinetic-energy cutoff     =      30.0000  Ry
     charge density cutoff     =     240.0000  Ry
     convergence threshold     =      4.0E-10
     mixing beta               =       0.4000
     number of iterations used =            8  plain     mixing
     Exchange-correlation      = PBE ( 1  4  3  4 0 0)

     celldm(1)=   7.237514  celldm(2)=   0.000000  celldm(3)=   0.000000
     celldm(4)=   0.000000  celldm(5)=   0.000000  celldm(6)=   0.000000

     crystal axes: (cart. coord. in units of alat)
               a(1) = (   0.502620  -0.864507   0.000000 )  
               a(2) = (   0.502620   0.864507   0.000000 )  
               a(3) = (   0.000000   0.000000   3.133218 )  

     reciprocal axes: (cart. coord. in units 2 pi/alat)
               b(1) = (  0.994786 -0.578364  0.000000 )  
               b(2) = (  0.994786  0.578364 -0.000000 )  
               b(3) = ( -0.000000  0.000000  0.319161 )  


     PseudoPot. # 1 for Si read from file:
     /home/meyn/q-e-qe-7.1/pseudo/Si.pbe-n-rrkjus_psl.1.0.0.UPF
     MD5 check sum: 56671f82560c68743c116fe4c72cdc4c
     Pseudo is Ultrasoft + core correction, Zval =  4.0
     Generated using "atomic" code by A. Dal Corso v.5.1.2
     Using radial grid of 1141 points,  6 beta functions with: 
                l(1) =   0
                l(2) =   0
                l(3) =   1
                l(4) =   1
                l(5) =   2
                l(6) =   2
     Q(r) pseudized with 0 coefficients 


     atomic species   valence    mass     pseudopotential
        Si             4.00    28.08550     Si( 1.00)

      4 Sym. Ops. (no inversion) found


                                    s                        frac. trans.

      isym =  1     identity                                     

 cryst.   s( 1) = (     1          0          0      )
                  (     0          1          0      )
                  (     0          0          1      )

 cart.    s( 1) = (  1.0000000  0.0000000  0.0000000 )
                  (  0.0000000  1.0000000  0.0000000 )
                  (  0.0000000  0.0000000  1.0000000 )


      isym =  2     180 deg rotation - cart. axis [0,1,0]        

 cryst.   s( 2) = (     0         -1          0      )
                  (    -1          0          0      )
                  (     0          0         -1      )

 cart.    s( 2) = ( -1.0000000  0.0000000  0.0000000 )
                  (  0.0000000  1.0000000  0.0000000 )
                  (  0.0000000  0.0000000 -1.0000000 )


      isym =  3     inv. 180 deg rotation - cart. axis [0,0,1]   

 cryst.   s( 3) = (     1          0          0      )
                  (     0          1          0      )
                  (     0          0         -1      )

 cart.    s( 3) = (  1.0000000  0.0000000  0.0000000 )
                  (  0.0000000  1.0000000  0.0000000 )
                  (  0.0000000  0.0000000 -1.0000000 )


      isym =  4     inv. 180 deg rotation - cart. axis [1,0,0]   

 cryst.   s( 4) = (     0         -1          0      )
                  (    -1          0          0      )
                  (     0          0          1      )

 cart.    s( 4) = ( -1.0000000  0.0000000  0.0000000 )
                  (  0.0000000  1.0000000  0.0000000 )
                  (  0.0000000  0.0000000  1.0000000 )


   Cartesian axes

     site n.     atom                  positions (alat units)
         1           Si  tau(   1) = (   0.0000000   0.0000000   0.0000000  )
         2           Si  tau(   2) = (   0.5026205   0.2939324   0.0000000  )

   Crystallographic axes

     site n.     atom                  positions (cryst. coord.)
         1           Si  tau(   1) = (  0.0000000  0.0000000  0.0000000  )
         2           Si  tau(   2) = (  0.3300000  0.6700000  0.0000000  )

     number of k points=    43  Marzari-Vanderbilt smearing, width (Ry)=  0.0147
                       cart. coord. in units 2pi/alat
        k(    1) = (   0.0000000   0.0000000   0.0000000), wk =   0.0138889
        k(    2) = (   0.0828989   0.0481970   0.0000000), wk =   0.0555556
        k(    3) = (   0.1657977   0.0963940   0.0000000), wk =   0.0555556
        k(    4) = (   0.2486966   0.1445910   0.0000000), wk =   0.0555556
        k(    5) = (   0.3315955   0.1927881   0.0000000), wk =   0.0555556
        k(    6) = (   0.4144943   0.2409851   0.0000000), wk =   0.0555556
        k(    7) = (  -0.4973932  -0.2891821   0.0000000), wk =   0.0277778
        k(    8) = (   0.1657977   0.0000000   0.0000000), wk =   0.0277778
        k(    9) = (   0.2486966   0.0481970   0.0000000), wk =   0.0555556
        k(   10) = (   0.3315955   0.0963940   0.0000000), wk =   0.0555556
        k(   11) = (   0.4144943   0.1445910   0.0000000), wk =   0.0555556
        k(   12) = (   0.4973932   0.1927881   0.0000000), wk =   0.0555556
        k(   13) = (  -0.4144943  -0.3373791   0.0000000), wk =   0.0555556
        k(   14) = (  -0.3315955  -0.2891821   0.0000000), wk =   0.0555556
        k(   15) = (  -0.2486966  -0.2409851   0.0000000), wk =   0.0555556
        k(   16) = (  -0.1657977  -0.1927881   0.0000000), wk =   0.0555556
        k(   17) = (  -0.0828989  -0.1445910   0.0000000), wk =   0.0555556
        k(   18) = (  -0.0000000  -0.0963940   0.0000000), wk =   0.0277778
        k(   19) = (   0.3315955   0.0000000   0.0000000), wk =   0.0277778
        k(   20) = (   0.4144943   0.0481970   0.0000000), wk =   0.0555556
        k(   21) = (   0.4973932   0.0963940   0.0000000), wk =   0.0555556
        k(   22) = (   0.5802921   0.1445910   0.0000000), wk =   0.0555556
        k(   23) = (  -0.3315955  -0.3855761   0.0000000), wk =   0.0555556
        k(   24) = (  -0.2486966  -0.3373791   0.0000000), wk =   0.0555556
        k(   25) = (  -0.1657977  -0.2891821   0.0000000), wk =   0.0555556
        k(   26) = (  -0.0828989  -0.2409851   0.0000000), wk =   0.0555556
        k(   27) = (   0.0000000  -0.1927881   0.0000000), wk =   0.0277778
        k(   28) = (   0.4973932   0.0000000   0.0000000), wk =   0.0277778
        k(   29) = (   0.5802921   0.0481970   0.0000000), wk =   0.0555556
        k(   30) = (   0.6631909   0.0963940   0.0000000), wk =   0.0555556
        k(   31) = (  -0.2486966  -0.4337731   0.0000000), wk =   0.0555556
        k(   32) = (  -0.1657977  -0.3855761   0.0000000), wk =   0.0555556
        k(   33) = (  -0.0828989  -0.3373791   0.0000000), wk =   0.0555556
        k(   34) = (   0.0000000  -0.2891821   0.0000000), wk =   0.0277778
        k(   35) = (   0.6631909   0.0000000   0.0000000), wk =   0.0277778
        k(   36) = (   0.7460898   0.0481970   0.0000000), wk =   0.0555556
        k(   37) = (  -0.1657977  -0.4819702   0.0000000), wk =   0.0555556
        k(   38) = (  -0.0828989  -0.4337731   0.0000000), wk =   0.0555556
        k(   39) = (  -0.0000000  -0.3855761   0.0000000), wk =   0.0277778
        k(   40) = (   0.8289887   0.0000000   0.0000000), wk =   0.0277778
        k(   41) = (  -0.0828989  -0.5301672   0.0000000), wk =   0.0555556
        k(   42) = (   0.0000000  -0.4819702   0.0000000), wk =   0.0277778
        k(   43) = (  -0.9947864   0.0000000   0.0000000), wk =   0.0138889

                       cryst. coord.
        k(    1) = (   0.0000000   0.0000000   0.0000000), wk =   0.0138889
        k(    2) = (   0.0000000   0.0833333   0.0000000), wk =   0.0555556
        k(    3) = (   0.0000000   0.1666667   0.0000000), wk =   0.0555556
        k(    4) = (   0.0000000   0.2500000   0.0000000), wk =   0.0555556
        k(    5) = (   0.0000000   0.3333333   0.0000000), wk =   0.0555556
        k(    6) = (   0.0000000   0.4166667   0.0000000), wk =   0.0555556
        k(    7) = (   0.0000000  -0.5000000   0.0000000), wk =   0.0277778
        k(    8) = (   0.0833333   0.0833333   0.0000000), wk =   0.0277778
        k(    9) = (   0.0833333   0.1666667   0.0000000), wk =   0.0555556
        k(   10) = (   0.0833333   0.2500000   0.0000000), wk =   0.0555556
        k(   11) = (   0.0833333   0.3333333   0.0000000), wk =   0.0555556
        k(   12) = (   0.0833333   0.4166667   0.0000000), wk =   0.0555556
        k(   13) = (   0.0833333  -0.5000000   0.0000000), wk =   0.0555556
        k(   14) = (   0.0833333  -0.4166667   0.0000000), wk =   0.0555556
        k(   15) = (   0.0833333  -0.3333333   0.0000000), wk =   0.0555556
        k(   16) = (   0.0833333  -0.2500000   0.0000000), wk =   0.0555556
        k(   17) = (   0.0833333  -0.1666667   0.0000000), wk =   0.0555556
        k(   18) = (   0.0833333  -0.0833333   0.0000000), wk =   0.0277778
        k(   19) = (   0.1666667   0.1666667   0.0000000), wk =   0.0277778
        k(   20) = (   0.1666667   0.2500000   0.0000000), wk =   0.0555556
        k(   21) = (   0.1666667   0.3333333   0.0000000), wk =   0.0555556
        k(   22) = (   0.1666667   0.4166667   0.0000000), wk =   0.0555556
        k(   23) = (   0.1666667  -0.5000000   0.0000000), wk =   0.0555556
        k(   24) = (   0.1666667  -0.4166667   0.0000000), wk =   0.0555556
        k(   25) = (   0.1666667  -0.3333333   0.0000000), wk =   0.0555556
        k(   26) = (   0.1666667  -0.2500000   0.0000000), wk =   0.0555556
        k(   27) = (   0.1666667  -0.1666667   0.0000000), wk =   0.0277778
        k(   28) = (   0.2500000   0.2500000   0.0000000), wk =   0.0277778
        k(   29) = (   0.2500000   0.3333333   0.0000000), wk =   0.0555556
        k(   30) = (   0.2500000   0.4166667   0.0000000), wk =   0.0555556
        k(   31) = (   0.2500000  -0.5000000   0.0000000), wk =   0.0555556
        k(   32) = (   0.2500000  -0.4166667   0.0000000), wk =   0.0555556
        k(   33) = (   0.2500000  -0.3333333   0.0000000), wk =   0.0555556
        k(   34) = (   0.2500000  -0.2500000   0.0000000), wk =   0.0277778
        k(   35) = (   0.3333333   0.3333333   0.0000000), wk =   0.0277778
        k(   36) = (   0.3333333   0.4166667   0.0000000), wk =   0.0555556
        k(   37) = (   0.3333333  -0.5000000   0.0000000), wk =   0.0555556
        k(   38) = (   0.3333333  -0.4166667   0.0000000), wk =   0.0555556
        k(   39) = (   0.3333333  -0.3333333   0.0000000), wk =   0.0277778
        k(   40) = (   0.4166667   0.4166667   0.0000000), wk =   0.0277778
        k(   41) = (   0.4166667  -0.5000000   0.0000000), wk =   0.0555556
        k(   42) = (   0.4166667  -0.4166667   0.0000000), wk =   0.0277778
        k(   43) = (  -0.5000000  -0.5000000   0.0000000), wk =   0.0138889

     Dense  grid:    64713 G-vectors     FFT dimensions: (  36,  36, 120)

     Smooth grid:    22975 G-vectors     FFT dimensions: (  25,  25,  80)

     Dynamical RAM for                 wfc:       0.35 MB

     Dynamical RAM for     wfc (w. buffer):      15.38 MB

     Dynamical RAM for           str. fact:       0.99 MB

     Dynamical RAM for           local pot:       0.00 MB

     Dynamical RAM for          nlocal pot:       1.57 MB

     Dynamical RAM for                qrad:       1.43 MB

     Dynamical RAM for          rho,v,vnew:       6.52 MB

     Dynamical RAM for               rhoin:       2.17 MB

     Dynamical RAM for            rho*nmix:      15.80 MB

     Dynamical RAM for           G-vectors:       3.88 MB

     Dynamical RAM for          h,s,v(r/c):       0.05 MB

     Dynamical RAM for          <psi|beta>:       0.00 MB

     Dynamical RAM for                 psi:       1.40 MB

     Dynamical RAM for                hpsi:       1.40 MB

     Dynamical RAM for                spsi:       1.40 MB

     Dynamical RAM for      wfcinit/wfcrot:       0.70 MB

     Dynamical RAM for           addusdens:     185.64 MB

     Dynamical RAM for          addusforce:     188.12 MB

     Dynamical RAM for         addusstress:     198.48 MB

     Estimated static dynamical RAM per process >      55.66 MB

     Estimated max dynamical RAM per process >     254.13 MB

     Initial potential from superposition of free atoms

     starting charge    7.99888, renormalised to    8.00000

     negative rho (up, down):  3.014E-06 0.000E+00
     Starting wfcs are    8 randomized atomic wfcs

     total cpu time spent up to now is        2.0 secs

     Self-consistent Calculation

     iteration #  1     ecut=    30.00 Ry     beta= 0.40
     Davidson diagonalization with overlap
     ethr =  1.00E-02,  avg # of iterations =  4.6

     Threshold (ethr) on eigenvalues was too large:
     Diagonalizing with lowered threshold

     Davidson diagonalization with overlap
     ethr =  9.18E-04,  avg # of iterations =  1.0

     negative rho (up, down):  1.947E-06 0.000E+00

     total cpu time spent up to now is        7.4 secs

     total energy              =     -22.74144452 Ry
     Harris-Foulkes estimate   =     -22.76131717 Ry
     estimated scf accuracy    <       0.07236386 Ry

     iteration #  2     ecut=    30.00 Ry     beta= 0.40
     Davidson diagonalization with overlap
     ethr =  9.05E-04,  avg # of iterations =  1.0

     negative rho (up, down):  4.085E-06 0.000E+00

     total cpu time spent up to now is        9.4 secs

     total energy              =     -22.73804203 Ry
     Harris-Foulkes estimate   =     -22.74375944 Ry
     estimated scf accuracy    <       0.01723237 Ry

     iteration #  3     ecut=    30.00 Ry     beta= 0.40
     Davidson diagonalization with overlap
     ethr =  2.15E-04,  avg # of iterations =  4.0

     negative rho (up, down):  2.987E-06 0.000E+00

     total cpu time spent up to now is       11.6 secs

     total energy              =     -22.73989705 Ry
     Harris-Foulkes estimate   =     -22.74009669 Ry
     estimated scf accuracy    <       0.00062877 Ry

     iteration #  4     ecut=    30.00 Ry     beta= 0.40
     Davidson diagonalization with overlap
     ethr =  7.86E-06,  avg # of iterations =  5.3

     negative rho (up, down):  2.363E-06 0.000E+00

     total cpu time spent up to now is       14.4 secs

     total energy              =     -22.73997396 Ry
     Harris-Foulkes estimate   =     -22.74008795 Ry
     estimated scf accuracy    <       0.00018173 Ry

     iteration #  5     ecut=    30.00 Ry     beta= 0.40
     Davidson diagonalization with overlap
     ethr =  2.27E-06,  avg # of iterations =  2.5

     negative rho (up, down):  2.086E-06 0.000E+00

     total cpu time spent up to now is       16.9 secs

     total energy              =     -22.74001121 Ry
     Harris-Foulkes estimate   =     -22.74001407 Ry
     estimated scf accuracy    <       0.00000636 Ry

     iteration #  6     ecut=    30.00 Ry     beta= 0.40
     Davidson diagonalization with overlap
     ethr =  7.95E-08,  avg # of iterations =  2.0

     negative rho (up, down):  1.985E-06 0.000E+00

     total cpu time spent up to now is       18.9 secs

     total energy              =     -22.74001212 Ry
     Harris-Foulkes estimate   =     -22.74001214 Ry
     estimated scf accuracy    <       0.00000025 Ry

     iteration #  7     ecut=    30.00 Ry     beta= 0.40
     Davidson diagonalization with overlap
     ethr =  3.17E-09,  avg # of iterations =  1.9

     negative rho (up, down):  1.947E-06 0.000E+00

     total cpu time spent up to now is       20.9 secs

     total energy              =     -22.74001213 Ry
     Harris-Foulkes estimate   =     -22.74001216 Ry
     estimated scf accuracy    <       0.00000005 Ry

     iteration #  8     ecut=    30.00 Ry     beta= 0.40
     Davidson diagonalization with overlap
     ethr =  6.05E-10,  avg # of iterations =  2.0

     negative rho (up, down):  1.941E-06 0.000E+00

     total cpu time spent up to now is       23.2 secs

     total energy              =     -22.74001214 Ry
     Harris-Foulkes estimate   =     -22.74001214 Ry
     estimated scf accuracy    <          1.6E-09 Ry

     iteration #  9     ecut=    30.00 Ry     beta= 0.40
     Davidson diagonalization with overlap
     ethr =  1.95E-11,  avg # of iterations =  2.4

     negative rho (up, down):  1.955E-06 0.000E+00

     total cpu time spent up to now is       25.4 secs

     End of self-consistent calculation

          k = 0.0000 0.0000 0.0000 (  2867 PWs)   bands (ev):

   -13.2222  -4.8632  -3.4909  -3.3436   0.1598   0.8472   1.1130   1.3579

     occupation numbers 
     1.0000   1.0000   1.0000   1.0000   0.0000   0.0000   0.0000   0.0000

          k = 0.0829 0.0482 0.0000 (  2876 PWs)   bands (ev):

   -13.1403  -4.7833  -3.9942  -3.5818   0.4739   1.0490   1.3650   1.4494

     occupation numbers 
     1.0000   1.0000   1.0000   1.0000   0.0000   0.0000   0.0000   0.0000

          k = 0.1658 0.0964 0.0000 (  2880 PWs)   bands (ev):

   -12.8965  -5.1910  -4.5454  -3.9060   0.1854   1.7219   2.1561   2.2713

     occupation numbers 
     1.0000   1.0000   1.0000   1.0000   0.0000   0.0000   0.0000   0.0000

          k = 0.2487 0.1446 0.0000 (  2868 PWs)   bands (ev):

   -12.4978  -6.4817  -4.2566  -4.1562  -0.2480   1.7740   2.1745   3.3163

     occupation numbers 
     1.0000   1.0000   1.0000   1.0000   0.0000   0.0000   0.0000   0.0000

          k = 0.3316 0.1928 0.0000 (  2871 PWs)   bands (ev):

   -11.9630  -7.6983  -4.5462  -3.6345  -0.6126   0.5812   2.7993   4.7400

     occupation numbers 
     1.0000   1.0000   1.0000   1.0000   0.0000   0.0000   0.0000   0.0000

          k = 0.4145 0.2410 0.0000 (  2875 PWs)   bands (ev):

   -11.3577  -8.7259  -4.7321  -3.0457  -0.8469  -0.4244   3.5735   5.2257

     occupation numbers 
     1.0000   1.0000   1.0000   1.0000   0.0000   0.0000   0.0000   0.0000

          k =-0.4974-0.2892 0.0000 (  2876 PWs)   bands (ev):

   -10.9940  -9.2321  -4.7958  -2.6956  -0.9271  -0.9155   4.2414   4.8299

     occupation numbers 
     1.0000   1.0000   1.0000   1.0000   0.0000   0.0000   0.0000   0.0000

          k = 0.1658 0.0000 0.0000 (  2887 PWs)   bands (ev):

   -12.9790  -4.7670  -4.6258  -3.9376   0.8198   0.9740   1.6306   2.3598

     occupation numbers 
     1.0000   1.0000   1.0000   1.0000   0.0000   0.0000   0.0000   0.0000

          k = 0.2487 0.0482 0.0000 (  2871 PWs)   bands (ev):

   -12.6589  -5.9155  -4.3730  -4.3132   0.4665   1.8967   1.9954   2.2893

     occupation numbers 
     1.0000   1.0000   1.0000   1.0000   0.0000   0.0000   0.0000   0.0000

          k = 0.3316 0.0964 0.0000 (  2868 PWs)   bands (ev):

   -12.1909  -7.1229  -4.7537  -3.8564   0.0771   1.1193   2.5294   3.1835

     occupation numbers 
     1.0000   1.0000   1.0000   1.0000   0.0000   0.0000   0.0000   0.0000

          k = 0.4145 0.1446 0.0000 (  2860 PWs)   bands (ev):

   -11.6074  -8.2385  -5.0216  -3.2875  -0.2143   0.0358   3.2311   4.5866

     occupation numbers 
     1.0000   1.0000   1.0000   1.0000   0.0000   0.0000   0.0000   0.0000

          k = 0.4974 0.1928 0.0000 (  2868 PWs)   bands (ev):

   -11.0442  -9.0795  -5.1542  -2.7423  -0.7791  -0.3700   4.0347   4.3125

     occupation numbers 
     1.0000   1.0000   1.0000   1.0000   0.0000   0.0000   0.0000   0.0000

          k =-0.4145-0.3374 0.0000 (  2867 PWs)   bands (ev):

   -11.0342  -9.0961  -5.1432  -2.7336  -0.7930  -0.3757   4.0445   4.3325

     occupation numbers 
     1.0000   1.0000   1.0000   1.0000   0.0000   0.0000   0.0000   0.0000

          k =-0.3316-0.2892 0.0000 (  2859 PWs)   bands (ev):

   -11.5930  -8.2737  -4.9879  -3.2748  -0.2304   0.0075   3.2404   4.5102

     occupation numbers 
     1.0000   1.0000   1.0000   1.0000   0.0000   0.0000   0.0000   0.0000

          k =-0.2487-0.2410 0.0000 (  2870 PWs)   bands (ev):

   -12.1790  -7.1730  -4.6953  -3.8458   0.0537   1.0833   2.5370   3.1082

     occupation numbers 
     1.0000   1.0000   1.0000   1.0000   0.0000   0.0000   0.0000   0.0000

          k =-0.1658-0.1928 0.0000 (  2871 PWs)   bands (ev):

   -12.6503  -5.9858  -4.3057  -4.2864   0.4430   1.8391   1.9975   2.2492

     occupation numbers 
     1.0000   1.0000   1.0000   1.0000   0.0000   0.0000   0.0000   0.0000

          k =-0.0829-0.1446 0.0000 (  2882 PWs)   bands (ev):

   -12.9739  -4.8635  -4.6213  -3.8228   0.7855   0.9635   1.6333   2.3402

     occupation numbers 
     1.0000   1.0000   1.0000   1.0000   0.0000   0.0000   0.0000   0.0000

          k =-0.0000-0.0964 0.0000 (  2881 PWs)   bands (ev):

   -13.1386  -4.7818  -4.0701  -3.4970   0.4502   1.1662   1.2437   1.4504

     occupation numbers 
     1.0000   1.0000   1.0000   1.0000   0.0000   0.0000   0.0000   0.0000

          k = 0.3316 0.0000 0.0000 (  2871 PWs)   bands (ev):

   -12.2678  -6.8163  -5.0138  -3.9313   1.2083   1.3769   1.7665   2.4413

     occupation numbers 
     1.0000   1.0000   1.0000   1.0000   0.0000   0.0000   0.0000   0.0000

          k = 0.4145 0.0482 0.0000 (  2856 PWs)   bands (ev):

   -11.7401  -7.8082  -5.5105  -3.4164   0.4108   1.0989   2.8787   3.0652

     occupation numbers 
     1.0000   1.0000   1.0000   1.0000   0.0000   0.0000   0.0000   0.0000

          k = 0.4974 0.0964 0.0000 (  2859 PWs)   bands (ev):

   -11.1311  -8.7444  -5.7955  -2.8241  -0.4892   0.9085   3.4210   3.8039

     occupation numbers 
     1.0000   1.0000   1.0000   1.0000   0.0000   0.0000   0.0000   0.0000

          k = 0.5803 0.1446 0.0000 (  2866 PWs)   bands (ev):

   -10.7316  -9.2690  -5.8765  -2.4404  -0.9884   0.8362   3.3183   4.4078

     occupation numbers 
     1.0000   1.0000   1.0000   1.0000   0.0000   0.0000   0.0000   0.0000

          k =-0.3316-0.3856 0.0000 (  2851 PWs)   bands (ev):

   -11.1000  -8.8040  -5.7585  -2.7970  -0.5366   0.8995   3.4595   3.8233

     occupation numbers 
     1.0000   1.0000   1.0000   1.0000   0.0000   0.0000   0.0000   0.0000

          k =-0.2487-0.3374 0.0000 (  2855 PWs)   bands (ev):

   -11.7114  -7.8941  -5.4373  -3.3911   0.3484   1.0930   2.7739   3.0759

     occupation numbers 
     1.0000   1.0000   1.0000   1.0000   0.0000   0.0000   0.0000   0.0000

          k =-0.1658-0.2892 0.0000 (  2869 PWs)   bands (ev):

   -12.2461  -6.9166  -4.9139  -3.9121   1.3050   1.3135   1.5582   2.4525

     occupation numbers 
     1.0000   1.0000   1.0000   1.0000   0.0000   0.0000   0.0000   0.0000

          k =-0.0829-0.2410 0.0000 (  2864 PWs)   bands (ev):

   -12.6445  -6.0073  -4.3005  -4.2755   0.4736   1.7991   2.0004   2.2412

     occupation numbers 
     1.0000   1.0000   1.0000   1.0000   0.0000   0.0000   0.0000   0.0000

          k = 0.0000-0.1928 0.0000 (  2877 PWs)   bands (ev):

   -12.8893  -5.2504  -4.5391  -3.8457   0.2095   1.7262   2.0111   2.3332

     occupation numbers 
     1.0000   1.0000   1.0000   1.0000   0.0000   0.0000   0.0000   0.0000

          k = 0.4974 0.0000 0.0000 (  2852 PWs)   bands (ev):

   -11.1695  -8.5463  -6.1160  -2.8605  -0.3283   2.2119   2.9123   3.0627

     occupation numbers 
     1.0000   1.0000   1.0000   1.0000   0.0000   0.0000   0.0000   0.0000

          k = 0.5803 0.0482 0.0000 (  2856 PWs)   bands (ev):

   -10.5693  -9.2566  -6.4141  -2.2781  -1.0163   2.3452   2.7080   4.1003

     occupation numbers 
     1.0000   1.0000   1.0000   1.0004   0.0000   0.0000   0.0000   0.0000

          k = 0.6632 0.0964 0.0000 (  2855 PWs)   bands (ev):

   -10.5207  -9.3261  -6.3908  -2.2369  -1.0712   2.3561   2.7263   3.9997

     occupation numbers 
     1.0000   1.0000   1.0000   1.0010   0.0000   0.0000   0.0000   0.0000

          k =-0.2487-0.4338 0.0000 (  2854 PWs)   bands (ev):

   -11.1140  -8.6572  -6.0540  -2.8125  -0.4113   2.2963   2.7152   3.1118

     occupation numbers 
     1.0000   1.0000   1.0000   1.0000   0.0000   0.0000   0.0000   0.0000

          k =-0.1658-0.3856 0.0000 (  2856 PWs)   bands (ev):

   -11.6971  -7.9189  -5.4335  -3.3788   0.3326   1.0851   2.7835   3.0795

     occupation numbers 
     1.0000   1.0000   1.0000   1.0000   0.0000   0.0000   0.0000   0.0000

          k =-0.0829-0.3374 0.0000 (  2863 PWs)   bands (ev):

   -12.1609  -7.2104  -4.6889  -3.8301   0.0631   1.0617   2.5460   3.0902

     occupation numbers 
     1.0000   1.0000   1.0000   1.0000   0.0000   0.0000   0.0000   0.0000

          k = 0.0000-0.2892 0.0000 (  2861 PWs)   bands (ev):

   -12.4801  -6.5382  -4.2209  -4.1407  -0.2377   1.7431   2.1841   3.2114

     occupation numbers 
     1.0000   1.0000   1.0000   1.0000   0.0000   0.0000   0.0000   0.0000

          k = 0.6632 0.0000 0.0000 (  2826 PWs)   bands (ev):

    -9.9879  -9.8209  -6.6310  -1.7080  -1.5760   2.4616   3.5561   4.0283

     occupation numbers 
     1.0000   1.0000   1.0000   0.7260   0.2649   0.0000   0.0000   0.0000

          k = 0.7461 0.0482 0.0000 (  2860 PWs)   bands (ev):

   -10.4568  -9.4071  -6.3762  -2.1850  -1.1327   2.3244   2.7326   4.0251

     occupation numbers 
     1.0000   1.0000   1.0000   1.0031   0.0000   0.0000   0.0000   0.0000

          k =-0.1658-0.4820 0.0000 (  2861 PWs)   bands (ev):

   -11.0474  -8.8782  -5.7466  -2.7530  -0.5910   0.8761   3.4549   3.8466

     occupation numbers 
     1.0000   1.0000   1.0000   1.0000   0.0000   0.0000   0.0000   0.0000

          k =-0.0829-0.4338 0.0000 (  2864 PWs)   bands (ev):

   -11.5487  -8.3409  -4.9828  -3.2369  -0.2384  -0.0399   3.2583   4.5147

     occupation numbers 
     1.0000   1.0000   1.0000   1.0000   0.0000   0.0000   0.0000   0.0000

          k =-0.0000-0.3856 0.0000 (  2885 PWs)   bands (ev):

   -11.9258  -7.7678  -4.5274  -3.6022  -0.6175   0.5337   2.8169   4.6682

     occupation numbers 
     1.0000   1.0000   1.0000   1.0000   0.0000   0.0000   0.0000   0.0000

          k = 0.8290 0.0000 0.0000 (  2860 PWs)   bands (ev):

   -10.5977  -9.4375  -5.8497  -2.3322  -1.1165   0.8038   3.3286   4.4824

     occupation numbers 
     1.0000   1.0000   1.0000   1.0001   0.0000   0.0000   0.0000   0.0000

          k =-0.0829-0.5302 0.0000 (  2866 PWs)   bands (ev):

   -10.9279  -9.2302  -5.1335  -2.6461  -0.8947  -0.3955   4.0837   4.3164

     occupation numbers 
     1.0000   1.0000   1.0000   1.0000   0.0000   0.0000   0.0000   0.0000

          k = 0.0000-0.4820 0.0000 (  2883 PWs)   bands (ev):

   -11.2792  -8.8336  -4.7226  -2.9794  -0.8611  -0.5055   3.6040   5.2396

     occupation numbers 
     1.0000   1.0000   1.0000   1.0000   0.0000   0.0000   0.0000   0.0000

          k =-0.9948 0.0000 0.0000 (  2888 PWs)   bands (ev):

   -10.8584  -9.3962  -4.7893  -2.5852  -1.0406  -0.9445   4.3102   4.8105

     occupation numbers 
     1.0000   1.0000   1.0000   1.0000   0.0000   0.0000   0.0000   0.0000

     the Fermi energy is    -1.6196 ev

!    total energy              =     -22.74001214 Ry
     Harris-Foulkes estimate   =     -22.74001214 Ry
     estimated scf accuracy    <          3.0E-10 Ry

     The total energy is the sum of the following terms:

     one-electron contribution =     -39.49669219 Ry
     hartree contribution      =      20.98681832 Ry
     xc contribution           =     -12.21463441 Ry
     ewald contribution        =       7.98458886 Ry
     smearing contrib. (-TS)   =      -0.00009272 Ry

     convergence has been achieved in   9 iterations

     negative rho (up, down):  1.955E-06 0.000E+00

     Forces acting on atoms (cartesian axes, Ry/au):

     atom    1 type  1   force =     0.00000000    0.02142951    0.00000000
     atom    2 type  1   force =     0.00000000   -0.02142951    0.00000000
     The non-local contrib.  to forces
     atom    1 type  1   force =     0.00000000    0.02359661    0.00000000
     atom    2 type  1   force =     0.00000000   -0.02363918    0.00000000
     The ionic contribution  to forces
     atom    1 type  1   force =    -0.00000000    0.06637603   -0.00000000
     atom    2 type  1   force =     0.00000000   -0.06637603   -0.00000000
     The local contribution  to forces
     atom    1 type  1   force =     0.00000000   -0.06577667    0.00000000
     atom    2 type  1   force =     0.00000000    0.06578319    0.00000000
     The core correction contribution to forces
     atom    1 type  1   force =    -0.00000000   -0.00277710   -0.00000000
     atom    2 type  1   force =    -0.00000000    0.00278982   -0.00000000
     The Hubbard contrib.    to forces
     atom    1 type  1   force =     0.00000000    0.00000000    0.00000000
     atom    2 type  1   force =     0.00000000    0.00000000    0.00000000
     The SCF correction term to forces
     atom    1 type  1   force =    -0.00000000   -0.00000101    0.00000000
     atom    2 type  1   force =    -0.00000000    0.00000103    0.00000000

     Total force =     0.030306     Total SCF correction =     0.000001


     Computing stress (Cartesian axis) and pressure


     negative rho (up, down):  1.955E-06 0.000E+00
          total   stress  (Ry/bohr**3)                   (kbar)     P=   12.43
   0.00008857  -0.00000000   0.00000000         13.03     -0.00      0.00
   0.00000000   0.00016536  -0.00000000          0.00     24.33     -0.00
   0.00000000  -0.00000000  -0.00000046          0.00     -0.00     -0.07

     kinetic stress (kbar)    527.74      0.00      0.00
                                0.00    525.38     -0.00
                               -0.00      0.00    656.13

     local   stress (kbar)  -6541.43     -0.00      0.00
                               -0.00  -6588.67     -0.00
                                0.00     -0.00   6824.14

     nonloc. stress (kbar)    447.69     -0.00     -0.00
                               -0.00    454.58      0.00
                                0.00     -0.00    379.03

     hartree stress (kbar)   2913.51      0.00     -0.00
                                0.00   2919.94     -0.00
                               -0.00     -0.00  -2842.72

     exc-cor stress (kbar)    778.06      0.00      0.00
                                0.00    778.42      0.00
                                0.00      0.00    768.95

     corecor stress (kbar)  -1036.27     -0.00      0.00
                               -0.00  -1037.17      0.00
                                0.00     -0.00  -1027.85

     ewald   stress (kbar)   2923.73      0.00     -0.00
                                0.00   2971.85     -0.00
                               -0.00     -0.00  -4757.74

     hubbard stress (kbar)      0.00      0.00      0.00
                                0.00      0.00      0.00
                                0.00      0.00      0.00

     london  stress (kbar)      0.00      0.00      0.00
                                0.00      0.00      0.00
                                0.00      0.00      0.00

     DFT-D3  stress (kbar)      0.00      0.00      0.00
                                0.00      0.00      0.00
                                0.00      0.00      0.00

     XDM     stress (kbar)      0.00      0.00      0.00
                                0.00      0.00      0.00
                                0.00      0.00      0.00

     dft-nl  stress (kbar)      0.00      0.00      0.00
                                0.00      0.00      0.00
                                0.00      0.00      0.00

     TS-vdW  stress (kbar)      0.00      0.00      0.00
                                0.00      0.00      0.00
                                0.00      0.00      0.00



     Writing output data file silicene.save/

     init_run     :      1.34s CPU      1.48s WALL (       1 calls)
     electrons    :     22.57s CPU     23.38s WALL (       1 calls)
     forces       :      0.91s CPU      0.94s WALL (       1 calls)
     stress       :      2.61s CPU      2.72s WALL (       1 calls)

     Called by init_run:
     wfcinit      :      0.50s CPU      0.53s WALL (       1 calls)
     wfcinit:atom :      0.02s CPU      0.02s WALL (      43 calls)
     wfcinit:wfcr :      0.41s CPU      0.44s WALL (      43 calls)
     potinit      :      0.19s CPU      0.20s WALL (       1 calls)
     hinit0       :      0.52s CPU      0.52s WALL (       1 calls)

     Called by electrons:
     c_bands      :     16.33s CPU     16.51s WALL (      10 calls)
     sum_band     :      4.15s CPU      4.42s WALL (      10 calls)
     v_of_rho     :      0.62s CPU      0.64s WALL (      10 calls)
     v_h          :      0.04s CPU      0.04s WALL (      10 calls)
     v_xc         :      0.68s CPU      0.71s WALL (      12 calls)
     newd         :      1.51s CPU      1.94s WALL (      10 calls)
     mix_rho      :      0.08s CPU      0.08s WALL (      10 calls)

     Called by c_bands:
     init_us_2    :      0.78s CPU      0.79s WALL (     989 calls)
     cegterg      :     13.74s CPU     13.89s WALL (     430 calls)

     Called by sum_band:
     sum_band:bec :      0.01s CPU      0.01s WALL (     430 calls)
     addusdens    :      1.81s CPU      2.03s WALL (      10 calls)

     Called by *egterg:
     h_psi        :      9.83s CPU      9.98s WALL (    1630 calls)
     s_psi        :      1.54s CPU      1.55s WALL (    1630 calls)
     g_psi        :      0.10s CPU      0.10s WALL (    1157 calls)
     cdiaghg      :      0.21s CPU      0.21s WALL (    1544 calls)
     cegterg:over :      0.98s CPU      0.98s WALL (    1157 calls)
     cegterg:upda :      0.67s CPU      0.67s WALL (    1157 calls)
     cegterg:last :      0.35s CPU      0.35s WALL (     439 calls)

     Called by h_psi:
     h_psi:pot    :      9.77s CPU      9.91s WALL (    1630 calls)
     h_psi:calbec :      1.68s CPU      1.69s WALL (    1630 calls)
     vloc_psi     :      6.57s CPU      6.69s WALL (    1630 calls)
     add_vuspsi   :      1.51s CPU      1.52s WALL (    1630 calls)

     General routines
     calbec       :      2.50s CPU      2.52s WALL (    2275 calls)
     fft          :      0.44s CPU      0.44s WALL (     154 calls)
     ffts         :      0.01s CPU      0.01s WALL (      20 calls)
     fftw         :      6.28s CPU      6.43s WALL (   21678 calls)
     interpolate  :      0.04s CPU      0.04s WALL (      10 calls)

     Parallel routines

     PWSCF        :     27.97s CPU     29.07s WALL


   This run was terminated on:  21:46:21  22Sep2023            

=------------------------------------------------------------------------------=
   JOB DONE.
=------------------------------------------------------------------------------=
