
     Program PWSCF v.6.4.1 starts on 23Sep2023 at  1:32:16 

     This program is part of the open-source Quantum ESPRESSO suite
     for quantum simulation of materials; please cite
         "P. Giannozzi et al., J. Phys.:Condens. Matter 21 395502 (2009);
         "P. Giannozzi et al., J. Phys.:Condens. Matter 29 465901 (2017);
          URL http://www.quantum-espresso.org", 
     in publications or presentations arising from this work. More details at
     http://www.quantum-espresso.org/quote

     Parallel version (MPI), running on     1 processors

     MPI processes distributed on     1 nodes
     Waiting for input...
     Reading input from standard input

     Current dimensions of program PWSCF are:
     Max number of different atomic species (ntypx) = 10
     Max number of k-points (npk) =  40000
     Max angular momentum in pseudopotentials (lmaxx) =  3
     Message from routine read_upf::
     Pseudo file Si.pbe-n-rrkjus_psl.1.0.0.UPF has been fixed on the fly.
To avoid this message in the future, permanently fix 
 your pseudo files following these instructions: 
https://gitlab.com/QEF/q-e/blob/master/upftools/how_to_fix_upf.md

     Subspace diagonalization in iterative solution of the eigenvalue problem:
     a serial algorithm will be used

     Message from routine setup:
     DEPRECATED: symmetry with ibrav=0, use correct ibrav instead

     G-vector sticks info
     --------------------
     sticks:   dense  smooth     PW     G-vecs:    dense   smooth      PW
     Sum         913     913    313                67107    67107   14131



     bravais-lattice index     =            0
     lattice parameter (alat)  =       7.3738  a.u.
     unit-cell volume          =    1067.7252 (a.u.)^3
     number of atoms/cell      =            2
     number of atomic types    =            1
     number of electrons       =         8.00
     number of Kohn-Sham states=            8
     kinetic-energy cutoff     =      70.0000  Ry
     charge density cutoff     =     240.0000  Ry
     convergence threshold     =      4.0E-10
     mixing beta               =       0.4000
     number of iterations used =            8  plain     mixing
     Exchange-correlation      = PBE ( 1  4  3  4 0 0)

     celldm(1)=   7.373770  celldm(2)=   0.000000  celldm(3)=   0.000000
     celldm(4)=   0.000000  celldm(5)=   0.000000  celldm(6)=   0.000000

     crystal axes: (cart. coord. in units of alat)
               a(1) = (   0.499990  -0.866031  -0.000000 )  
               a(2) = (   0.499990   0.866031   0.000000 )  
               a(3) = (  -0.000000   0.000000   3.075148 )  

     reciprocal axes: (cart. coord. in units 2 pi/alat)
               b(1) = (  1.000020 -0.577346  0.000000 )  
               b(2) = (  1.000020  0.577346  0.000000 )  
               b(3) = (  0.000000 -0.000000  0.325188 )  


     PseudoPot. # 1 for Si read from file:
     /home/meyn/q-e-qe-7.1/pseudo/Si.pbe-n-rrkjus_psl.1.0.0.UPF
     MD5 check sum: 56671f82560c68743c116fe4c72cdc4c
     Pseudo is Ultrasoft + core correction, Zval =  4.0
     Generated using "atomic" code by A. Dal Corso v.5.1.2
     Using radial grid of 1141 points,  6 beta functions with: 
                l(1) =   0
                l(2) =   0
                l(3) =   1
                l(4) =   1
                l(5) =   2
                l(6) =   2
     Q(r) pseudized with 0 coefficients 


     atomic species   valence    mass     pseudopotential
        Si             4.00    28.08550     Si( 1.00)

      4 Sym. Ops. (no inversion) found


                                    s                        frac. trans.

      isym =  1     identity                                     

 cryst.   s( 1) = (     1          0          0      )
                  (     0          1          0      )
                  (     0          0          1      )

 cart.    s( 1) = (  1.0000000  0.0000000  0.0000000 )
                  (  0.0000000  1.0000000  0.0000000 )
                  (  0.0000000  0.0000000  1.0000000 )


      isym =  2     180 deg rotation - cart. axis [0,1,0]        

 cryst.   s( 2) = (     0         -1          0      )
                  (    -1          0          0      )
                  (     0          0         -1      )

 cart.    s( 2) = ( -1.0000000  0.0000000  0.0000000 )
                  (  0.0000000  1.0000000  0.0000000 )
                  (  0.0000000  0.0000000 -1.0000000 )


      isym =  3     inv. 180 deg rotation - cart. axis [0,0,1]   

 cryst.   s( 3) = (     1          0          0      )
                  (     0          1          0      )
                  (     0          0         -1      )

 cart.    s( 3) = (  1.0000000  0.0000000  0.0000000 )
                  (  0.0000000  1.0000000  0.0000000 )
                  (  0.0000000  0.0000000 -1.0000000 )


      isym =  4     inv. 180 deg rotation - cart. axis [1,0,0]   

 cryst.   s( 4) = (     0         -1          0      )
                  (    -1          0          0      )
                  (     0          0          1      )

 cart.    s( 4) = ( -1.0000000  0.0000000  0.0000000 )
                  (  0.0000000  1.0000000  0.0000000 )
                  (  0.0000000  0.0000000  1.0000000 )


   Cartesian axes

     site n.     atom                  positions (alat units)
         1           Si  tau(   1) = (   0.4999898  -0.8631569   0.0000000  )
         2           Si  tau(   2) = (   0.4999898   0.2915762   0.0000000  )

   Crystallographic axes

     site n.     atom                  positions (cryst. coord.)
         1           Si  tau(   1) = (  0.9983405  0.0016595  0.0000000  )
         2           Si  tau(   2) = (  0.3316595  0.6683405  0.0000000  )

     number of k points=   111  Marzari-Vanderbilt smearing, width (Ry)=  0.0147
                       cart. coord. in units 2pi/alat
        k(    1) = (   0.0000000   0.0000000   0.0000000), wk =   0.0050000
        k(    2) = (   0.0500010   0.0288673   0.0000000), wk =   0.0200000
        k(    3) = (   0.1000020   0.0577346   0.0000000), wk =   0.0200000
        k(    4) = (   0.1500031   0.0866020   0.0000000), wk =   0.0200000
        k(    5) = (   0.2000041   0.1154693   0.0000000), wk =   0.0200000
        k(    6) = (   0.2500051   0.1443366   0.0000000), wk =   0.0200000
        k(    7) = (   0.3000061   0.1732039   0.0000000), wk =   0.0200000
        k(    8) = (   0.3500071   0.2020712   0.0000000), wk =   0.0200000
        k(    9) = (   0.4000081   0.2309385   0.0000000), wk =   0.0200000
        k(   10) = (   0.4500092   0.2598059   0.0000000), wk =   0.0200000
        k(   11) = (  -0.5000102  -0.2886732   0.0000000), wk =   0.0100000
        k(   12) = (   0.1000020   0.0000000   0.0000000), wk =   0.0100000
        k(   13) = (   0.1500031   0.0288673   0.0000000), wk =   0.0200000
        k(   14) = (   0.2000041   0.0577346   0.0000000), wk =   0.0200000
        k(   15) = (   0.2500051   0.0866020   0.0000000), wk =   0.0200000
        k(   16) = (   0.3000061   0.1154693   0.0000000), wk =   0.0200000
        k(   17) = (   0.3500071   0.1443366   0.0000000), wk =   0.0200000
        k(   18) = (   0.4000081   0.1732039   0.0000000), wk =   0.0200000
        k(   19) = (   0.4500092   0.2020712   0.0000000), wk =   0.0200000
        k(   20) = (   0.5000102   0.2309385   0.0000000), wk =   0.0200000
        k(   21) = (  -0.4500092  -0.3175405   0.0000000), wk =   0.0200000
        k(   22) = (  -0.4000081  -0.2886732   0.0000000), wk =   0.0200000
        k(   23) = (  -0.3500071  -0.2598059   0.0000000), wk =   0.0200000
        k(   24) = (  -0.3000061  -0.2309385   0.0000000), wk =   0.0200000
        k(   25) = (  -0.2500051  -0.2020712   0.0000000), wk =   0.0200000
        k(   26) = (  -0.2000041  -0.1732039   0.0000000), wk =   0.0200000
        k(   27) = (  -0.1500031  -0.1443366   0.0000000), wk =   0.0200000
        k(   28) = (  -0.1000020  -0.1154693   0.0000000), wk =   0.0200000
        k(   29) = (  -0.0500010  -0.0866020   0.0000000), wk =   0.0200000
        k(   30) = (  -0.0000000  -0.0577346   0.0000000), wk =   0.0100000
        k(   31) = (   0.2000041   0.0000000   0.0000000), wk =   0.0100000
        k(   32) = (   0.2500051   0.0288673   0.0000000), wk =   0.0200000
        k(   33) = (   0.3000061   0.0577346   0.0000000), wk =   0.0200000
        k(   34) = (   0.3500071   0.0866020   0.0000000), wk =   0.0200000
        k(   35) = (   0.4000081   0.1154693   0.0000000), wk =   0.0200000
        k(   36) = (   0.4500092   0.1443366   0.0000000), wk =   0.0200000
        k(   37) = (   0.5000102   0.1732039   0.0000000), wk =   0.0200000
        k(   38) = (   0.5500112   0.2020712   0.0000000), wk =   0.0200000
        k(   39) = (  -0.4000081  -0.3464078   0.0000000), wk =   0.0200000
        k(   40) = (  -0.3500071  -0.3175405   0.0000000), wk =   0.0200000
        k(   41) = (  -0.3000061  -0.2886732   0.0000000), wk =   0.0200000
        k(   42) = (  -0.2500051  -0.2598059   0.0000000), wk =   0.0200000
        k(   43) = (  -0.2000041  -0.2309385   0.0000000), wk =   0.0200000
        k(   44) = (  -0.1500031  -0.2020712   0.0000000), wk =   0.0200000
        k(   45) = (  -0.1000020  -0.1732039   0.0000000), wk =   0.0200000
        k(   46) = (  -0.0500010  -0.1443366   0.0000000), wk =   0.0200000
        k(   47) = (   0.0000000  -0.1154693   0.0000000), wk =   0.0100000
        k(   48) = (   0.3000061   0.0000000   0.0000000), wk =   0.0100000
        k(   49) = (   0.3500071   0.0288673   0.0000000), wk =   0.0200000
        k(   50) = (   0.4000081   0.0577346   0.0000000), wk =   0.0200000
        k(   51) = (   0.4500092   0.0866020   0.0000000), wk =   0.0200000
        k(   52) = (   0.5000102   0.1154693   0.0000000), wk =   0.0200000
        k(   53) = (   0.5500112   0.1443366   0.0000000), wk =   0.0200000
        k(   54) = (   0.6000122   0.1732039   0.0000000), wk =   0.0200000
        k(   55) = (  -0.3500071  -0.3752751   0.0000000), wk =   0.0200000
        k(   56) = (  -0.3000061  -0.3464078   0.0000000), wk =   0.0200000
        k(   57) = (  -0.2500051  -0.3175405   0.0000000), wk =   0.0200000
        k(   58) = (  -0.2000041  -0.2886732   0.0000000), wk =   0.0200000
        k(   59) = (  -0.1500031  -0.2598059   0.0000000), wk =   0.0200000
        k(   60) = (  -0.1000020  -0.2309385   0.0000000), wk =   0.0200000
        k(   61) = (  -0.0500010  -0.2020712   0.0000000), wk =   0.0200000
        k(   62) = (  -0.0000000  -0.1732039   0.0000000), wk =   0.0100000
        k(   63) = (   0.4000081   0.0000000   0.0000000), wk =   0.0100000
        k(   64) = (   0.4500092   0.0288673   0.0000000), wk =   0.0200000
        k(   65) = (   0.5000102   0.0577346   0.0000000), wk =   0.0200000
        k(   66) = (   0.5500112   0.0866020   0.0000000), wk =   0.0200000
        k(   67) = (   0.6000122   0.1154693   0.0000000), wk =   0.0200000
        k(   68) = (   0.6500132   0.1443366   0.0000000), wk =   0.0200000
        k(   69) = (  -0.3000061  -0.4041424   0.0000000), wk =   0.0200000
        k(   70) = (  -0.2500051  -0.3752751   0.0000000), wk =   0.0200000
        k(   71) = (  -0.2000041  -0.3464078   0.0000000), wk =   0.0200000
        k(   72) = (  -0.1500031  -0.3175405   0.0000000), wk =   0.0200000
        k(   73) = (  -0.1000020  -0.2886732   0.0000000), wk =   0.0200000
        k(   74) = (  -0.0500010  -0.2598059   0.0000000), wk =   0.0200000
        k(   75) = (   0.0000000  -0.2309385   0.0000000), wk =   0.0100000
        k(   76) = (   0.5000102   0.0000000   0.0000000), wk =   0.0100000
        k(   77) = (   0.5500112   0.0288673   0.0000000), wk =   0.0200000
        k(   78) = (   0.6000122   0.0577346   0.0000000), wk =   0.0200000
        k(   79) = (   0.6500132   0.0866020   0.0000000), wk =   0.0200000
        k(   80) = (   0.7000142   0.1154693   0.0000000), wk =   0.0200000
        k(   81) = (  -0.2500051  -0.4330098   0.0000000), wk =   0.0200000
        k(   82) = (  -0.2000041  -0.4041424   0.0000000), wk =   0.0200000
        k(   83) = (  -0.1500031  -0.3752751   0.0000000), wk =   0.0200000
        k(   84) = (  -0.1000020  -0.3464078   0.0000000), wk =   0.0200000
        k(   85) = (  -0.0500010  -0.3175405   0.0000000), wk =   0.0200000
        k(   86) = (   0.0000000  -0.2886732   0.0000000), wk =   0.0100000
        k(   87) = (   0.6000122   0.0000000   0.0000000), wk =   0.0100000
        k(   88) = (   0.6500132   0.0288673   0.0000000), wk =   0.0200000
        k(   89) = (   0.7000142   0.0577346   0.0000000), wk =   0.0200000
        k(   90) = (   0.7500153   0.0866020   0.0000000), wk =   0.0200000
        k(   91) = (  -0.2000041  -0.4618771   0.0000000), wk =   0.0200000
        k(   92) = (  -0.1500031  -0.4330098   0.0000000), wk =   0.0200000
        k(   93) = (  -0.1000020  -0.4041424   0.0000000), wk =   0.0200000
        k(   94) = (  -0.0500010  -0.3752751   0.0000000), wk =   0.0200000
        k(   95) = (  -0.0000000  -0.3464078   0.0000000), wk =   0.0100000
        k(   96) = (   0.7000142   0.0000000   0.0000000), wk =   0.0100000
        k(   97) = (   0.7500153   0.0288673   0.0000000), wk =   0.0200000
        k(   98) = (   0.8000163   0.0577346   0.0000000), wk =   0.0200000
        k(   99) = (  -0.1500031  -0.4907444   0.0000000), wk =   0.0200000
        k(  100) = (  -0.1000020  -0.4618771   0.0000000), wk =   0.0200000
        k(  101) = (  -0.0500010  -0.4330098   0.0000000), wk =   0.0200000
        k(  102) = (   0.0000000  -0.4041424   0.0000000), wk =   0.0100000
        k(  103) = (   0.8000163   0.0000000   0.0000000), wk =   0.0100000
        k(  104) = (   0.8500173   0.0288673   0.0000000), wk =   0.0200000
        k(  105) = (  -0.1000020  -0.5196117   0.0000000), wk =   0.0200000
        k(  106) = (  -0.0500010  -0.4907444   0.0000000), wk =   0.0200000
        k(  107) = (   0.0000000  -0.4618771   0.0000000), wk =   0.0100000
        k(  108) = (   0.9000183   0.0000000   0.0000000), wk =   0.0100000
        k(  109) = (  -0.0500010  -0.5484790   0.0000000), wk =   0.0200000
        k(  110) = (   0.0000000  -0.5196117   0.0000000), wk =   0.0100000
        k(  111) = (  -1.0000203   0.0000000   0.0000000), wk =   0.0050000

                       cryst. coord.
        k(    1) = (   0.0000000   0.0000000   0.0000000), wk =   0.0050000
        k(    2) = (  -0.0000000   0.0500000   0.0000000), wk =   0.0200000
        k(    3) = (  -0.0000000   0.1000000   0.0000000), wk =   0.0200000
        k(    4) = (  -0.0000000   0.1500000   0.0000000), wk =   0.0200000
        k(    5) = (  -0.0000000   0.2000000   0.0000000), wk =   0.0200000
        k(    6) = (  -0.0000000   0.2500000   0.0000000), wk =   0.0200000
        k(    7) = (  -0.0000000   0.3000000   0.0000000), wk =   0.0200000
        k(    8) = (  -0.0000000   0.3500000   0.0000000), wk =   0.0200000
        k(    9) = (  -0.0000000   0.4000000   0.0000000), wk =   0.0200000
        k(   10) = (  -0.0000000   0.4500000   0.0000000), wk =   0.0200000
        k(   11) = (   0.0000000  -0.5000000   0.0000000), wk =   0.0100000
        k(   12) = (   0.0500000   0.0500000   0.0000000), wk =   0.0100000
        k(   13) = (   0.0500000   0.1000000   0.0000000), wk =   0.0200000
        k(   14) = (   0.0500000   0.1500000   0.0000000), wk =   0.0200000
        k(   15) = (   0.0500000   0.2000000   0.0000000), wk =   0.0200000
        k(   16) = (   0.0500000   0.2500000   0.0000000), wk =   0.0200000
        k(   17) = (   0.0500000   0.3000000   0.0000000), wk =   0.0200000
        k(   18) = (   0.0500000   0.3500000   0.0000000), wk =   0.0200000
        k(   19) = (   0.0500000   0.4000000   0.0000000), wk =   0.0200000
        k(   20) = (   0.0500000   0.4500000   0.0000000), wk =   0.0200000
        k(   21) = (   0.0500000  -0.5000000   0.0000000), wk =   0.0200000
        k(   22) = (   0.0500000  -0.4500000   0.0000000), wk =   0.0200000
        k(   23) = (   0.0500000  -0.4000000   0.0000000), wk =   0.0200000
        k(   24) = (   0.0500000  -0.3500000   0.0000000), wk =   0.0200000
        k(   25) = (   0.0500000  -0.3000000   0.0000000), wk =   0.0200000
        k(   26) = (   0.0500000  -0.2500000   0.0000000), wk =   0.0200000
        k(   27) = (   0.0500000  -0.2000000   0.0000000), wk =   0.0200000
        k(   28) = (   0.0500000  -0.1500000   0.0000000), wk =   0.0200000
        k(   29) = (   0.0500000  -0.1000000   0.0000000), wk =   0.0200000
        k(   30) = (   0.0500000  -0.0500000   0.0000000), wk =   0.0100000
        k(   31) = (   0.1000000   0.1000000   0.0000000), wk =   0.0100000
        k(   32) = (   0.1000000   0.1500000   0.0000000), wk =   0.0200000
        k(   33) = (   0.1000000   0.2000000   0.0000000), wk =   0.0200000
        k(   34) = (   0.1000000   0.2500000   0.0000000), wk =   0.0200000
        k(   35) = (   0.1000000   0.3000000   0.0000000), wk =   0.0200000
        k(   36) = (   0.1000000   0.3500000   0.0000000), wk =   0.0200000
        k(   37) = (   0.1000000   0.4000000   0.0000000), wk =   0.0200000
        k(   38) = (   0.1000000   0.4500000   0.0000000), wk =   0.0200000
        k(   39) = (   0.1000000  -0.5000000   0.0000000), wk =   0.0200000
        k(   40) = (   0.1000000  -0.4500000   0.0000000), wk =   0.0200000
        k(   41) = (   0.1000000  -0.4000000   0.0000000), wk =   0.0200000
        k(   42) = (   0.1000000  -0.3500000   0.0000000), wk =   0.0200000
        k(   43) = (   0.1000000  -0.3000000   0.0000000), wk =   0.0200000
        k(   44) = (   0.1000000  -0.2500000   0.0000000), wk =   0.0200000
        k(   45) = (   0.1000000  -0.2000000   0.0000000), wk =   0.0200000
        k(   46) = (   0.1000000  -0.1500000   0.0000000), wk =   0.0200000
        k(   47) = (   0.1000000  -0.1000000   0.0000000), wk =   0.0100000
        k(   48) = (   0.1500000   0.1500000   0.0000000), wk =   0.0100000
        k(   49) = (   0.1500000   0.2000000   0.0000000), wk =   0.0200000
        k(   50) = (   0.1500000   0.2500000   0.0000000), wk =   0.0200000
        k(   51) = (   0.1500000   0.3000000   0.0000000), wk =   0.0200000
        k(   52) = (   0.1500000   0.3500000   0.0000000), wk =   0.0200000
        k(   53) = (   0.1500000   0.4000000   0.0000000), wk =   0.0200000
        k(   54) = (   0.1500000   0.4500000   0.0000000), wk =   0.0200000
        k(   55) = (   0.1500000  -0.5000000   0.0000000), wk =   0.0200000
        k(   56) = (   0.1500000  -0.4500000   0.0000000), wk =   0.0200000
        k(   57) = (   0.1500000  -0.4000000   0.0000000), wk =   0.0200000
        k(   58) = (   0.1500000  -0.3500000   0.0000000), wk =   0.0200000
        k(   59) = (   0.1500000  -0.3000000   0.0000000), wk =   0.0200000
        k(   60) = (   0.1500000  -0.2500000   0.0000000), wk =   0.0200000
        k(   61) = (   0.1500000  -0.2000000   0.0000000), wk =   0.0200000
        k(   62) = (   0.1500000  -0.1500000   0.0000000), wk =   0.0100000
        k(   63) = (   0.2000000   0.2000000   0.0000000), wk =   0.0100000
        k(   64) = (   0.2000000   0.2500000   0.0000000), wk =   0.0200000
        k(   65) = (   0.2000000   0.3000000   0.0000000), wk =   0.0200000
        k(   66) = (   0.2000000   0.3500000   0.0000000), wk =   0.0200000
        k(   67) = (   0.2000000   0.4000000   0.0000000), wk =   0.0200000
        k(   68) = (   0.2000000   0.4500000   0.0000000), wk =   0.0200000
        k(   69) = (   0.2000000  -0.5000000   0.0000000), wk =   0.0200000
        k(   70) = (   0.2000000  -0.4500000   0.0000000), wk =   0.0200000
        k(   71) = (   0.2000000  -0.4000000   0.0000000), wk =   0.0200000
        k(   72) = (   0.2000000  -0.3500000   0.0000000), wk =   0.0200000
        k(   73) = (   0.2000000  -0.3000000   0.0000000), wk =   0.0200000
        k(   74) = (   0.2000000  -0.2500000   0.0000000), wk =   0.0200000
        k(   75) = (   0.2000000  -0.2000000   0.0000000), wk =   0.0100000
        k(   76) = (   0.2500000   0.2500000   0.0000000), wk =   0.0100000
        k(   77) = (   0.2500000   0.3000000   0.0000000), wk =   0.0200000
        k(   78) = (   0.2500000   0.3500000   0.0000000), wk =   0.0200000
        k(   79) = (   0.2500000   0.4000000   0.0000000), wk =   0.0200000
        k(   80) = (   0.2500000   0.4500000   0.0000000), wk =   0.0200000
        k(   81) = (   0.2500000  -0.5000000   0.0000000), wk =   0.0200000
        k(   82) = (   0.2500000  -0.4500000   0.0000000), wk =   0.0200000
        k(   83) = (   0.2500000  -0.4000000   0.0000000), wk =   0.0200000
        k(   84) = (   0.2500000  -0.3500000   0.0000000), wk =   0.0200000
        k(   85) = (   0.2500000  -0.3000000   0.0000000), wk =   0.0200000
        k(   86) = (   0.2500000  -0.2500000   0.0000000), wk =   0.0100000
        k(   87) = (   0.3000000   0.3000000   0.0000000), wk =   0.0100000
        k(   88) = (   0.3000000   0.3500000   0.0000000), wk =   0.0200000
        k(   89) = (   0.3000000   0.4000000   0.0000000), wk =   0.0200000
        k(   90) = (   0.3000000   0.4500000   0.0000000), wk =   0.0200000
        k(   91) = (   0.3000000  -0.5000000   0.0000000), wk =   0.0200000
        k(   92) = (   0.3000000  -0.4500000   0.0000000), wk =   0.0200000
        k(   93) = (   0.3000000  -0.4000000   0.0000000), wk =   0.0200000
        k(   94) = (   0.3000000  -0.3500000   0.0000000), wk =   0.0200000
        k(   95) = (   0.3000000  -0.3000000   0.0000000), wk =   0.0100000
        k(   96) = (   0.3500000   0.3500000   0.0000000), wk =   0.0100000
        k(   97) = (   0.3500000   0.4000000   0.0000000), wk =   0.0200000
        k(   98) = (   0.3500000   0.4500000   0.0000000), wk =   0.0200000
        k(   99) = (   0.3500000  -0.5000000   0.0000000), wk =   0.0200000
        k(  100) = (   0.3500000  -0.4500000   0.0000000), wk =   0.0200000
        k(  101) = (   0.3500000  -0.4000000   0.0000000), wk =   0.0200000
        k(  102) = (   0.3500000  -0.3500000   0.0000000), wk =   0.0100000
        k(  103) = (   0.4000000   0.4000000   0.0000000), wk =   0.0100000
        k(  104) = (   0.4000000   0.4500000   0.0000000), wk =   0.0200000
        k(  105) = (   0.4000000  -0.5000000   0.0000000), wk =   0.0200000
        k(  106) = (   0.4000000  -0.4500000   0.0000000), wk =   0.0200000
        k(  107) = (   0.4000000  -0.4000000   0.0000000), wk =   0.0100000
        k(  108) = (   0.4500000   0.4500000   0.0000000), wk =   0.0100000
        k(  109) = (   0.4500000  -0.5000000   0.0000000), wk =   0.0200000
        k(  110) = (   0.4500000  -0.4500000   0.0000000), wk =   0.0100000
        k(  111) = (  -0.5000000  -0.5000000   0.0000000), wk =   0.0050000

     Dense  grid:    67107 G-vectors     FFT dimensions: (  40,  40, 120)

     Dynamical RAM for                 wfc:       1.29 MB

     Dynamical RAM for     wfc (w. buffer):     144.38 MB

     Dynamical RAM for           str. fact:       1.02 MB

     Dynamical RAM for           local pot:       0.00 MB

     Dynamical RAM for          nlocal pot:       5.80 MB

     Dynamical RAM for                qrad:       1.46 MB

     Dynamical RAM for          rho,v,vnew:       7.47 MB

     Dynamical RAM for               rhoin:       2.49 MB

     Dynamical RAM for            rho*nmix:      16.38 MB

     Dynamical RAM for           G-vectors:       4.35 MB

     Dynamical RAM for          h,s,v(r/c):       0.05 MB

     Dynamical RAM for          <psi|beta>:       0.00 MB

     Dynamical RAM for                 psi:       5.16 MB

     Dynamical RAM for                hpsi:       5.16 MB

     Dynamical RAM for                spsi:       5.16 MB

     Dynamical RAM for      wfcinit/wfcrot:       2.58 MB

     Dynamical RAM for           addusdens:     192.51 MB

     Dynamical RAM for          addusforce:     195.07 MB

     Dynamical RAM for         addusstress:     205.82 MB

     Estimated static dynamical RAM per process >     192.72 MB

     Estimated max dynamical RAM per process >     398.54 MB

     Initial potential from superposition of free atoms

     starting charge    7.99888, renormalised to    8.00000

     negative rho (up, down):  2.826E-06 0.000E+00
     Starting wfcs are    8 randomized atomic wfcs

     total cpu time spent up to now is        9.6 secs

     Self-consistent Calculation

     iteration #  1     ecut=    70.00 Ry     beta= 0.40
     Davidson diagonalization with overlap
     ethr =  1.00E-02,  avg # of iterations =  4.5

     Threshold (ethr) on eigenvalues was too large:
     Diagonalizing with lowered threshold

     Davidson diagonalization with overlap
     ethr =  8.06E-04,  avg # of iterations =  1.5

     negative rho (up, down):  1.916E-06 0.000E+00

     total cpu time spent up to now is       65.0 secs

     total energy              =     -22.74447935 Ry
     Harris-Foulkes estimate   =     -22.76064233 Ry
     estimated scf accuracy    <       0.06347466 Ry

     iteration #  2     ecut=    70.00 Ry     beta= 0.40
     Davidson diagonalization with overlap
     ethr =  7.93E-04,  avg # of iterations =  1.1

     negative rho (up, down):  2.438E-06 0.000E+00

     total cpu time spent up to now is       86.7 secs

     total energy              =     -22.74138913 Ry
     Harris-Foulkes estimate   =     -22.74630494 Ry
     estimated scf accuracy    <       0.01581508 Ry

     iteration #  3     ecut=    70.00 Ry     beta= 0.40
     Davidson diagonalization with overlap
     ethr =  1.98E-04,  avg # of iterations =  3.9

     negative rho (up, down):  1.846E-06 0.000E+00

     total cpu time spent up to now is      112.7 secs

     total energy              =     -22.74293662 Ry
     Harris-Foulkes estimate   =     -22.74312805 Ry
     estimated scf accuracy    <       0.00056715 Ry

     iteration #  4     ecut=    70.00 Ry     beta= 0.40
     Davidson diagonalization with overlap
     c_bands:  1 eigenvalues not converged
     ethr =  7.09E-06,  avg # of iterations =  5.2

     negative rho (up, down):  1.992E-06 0.000E+00

     total cpu time spent up to now is      144.5 secs

     total energy              =     -22.74301836 Ry
     Harris-Foulkes estimate   =     -22.74311554 Ry
     estimated scf accuracy    <       0.00015900 Ry

     iteration #  5     ecut=    70.00 Ry     beta= 0.40
     Davidson diagonalization with overlap
     ethr =  1.99E-06,  avg # of iterations =  2.7

     negative rho (up, down):  2.062E-06 0.000E+00

     total cpu time spent up to now is      170.7 secs

     total energy              =     -22.74304888 Ry
     Harris-Foulkes estimate   =     -22.74304997 Ry
     estimated scf accuracy    <       0.00000288 Ry

     iteration #  6     ecut=    70.00 Ry     beta= 0.40
     Davidson diagonalization with overlap
     ethr =  3.60E-08,  avg # of iterations =  2.2

     negative rho (up, down):  2.063E-06 0.000E+00

     total cpu time spent up to now is      196.0 secs

     total energy              =     -22.74304963 Ry
     Harris-Foulkes estimate   =     -22.74304964 Ry
     estimated scf accuracy    <       0.00000014 Ry

     iteration #  7     ecut=    70.00 Ry     beta= 0.40
     Davidson diagonalization with overlap
     ethr =  1.76E-09,  avg # of iterations =  2.0

     negative rho (up, down):  2.051E-06 0.000E+00

     total cpu time spent up to now is      220.7 secs

     total energy              =     -22.74304965 Ry
     Harris-Foulkes estimate   =     -22.74304965 Ry
     estimated scf accuracy    <       0.00000002 Ry

     iteration #  8     ecut=    70.00 Ry     beta= 0.40
     Davidson diagonalization with overlap
     ethr =  2.09E-10,  avg # of iterations =  1.9

     negative rho (up, down):  2.047E-06 0.000E+00

     total cpu time spent up to now is      243.2 secs

     total energy              =     -22.74304965 Ry
     Harris-Foulkes estimate   =     -22.74304965 Ry
     estimated scf accuracy    <          1.8E-09 Ry

     iteration #  9     ecut=    70.00 Ry     beta= 0.40
     Davidson diagonalization with overlap
     ethr =  2.20E-11,  avg # of iterations =  2.3

     negative rho (up, down):  2.048E-06 0.000E+00

     total cpu time spent up to now is      267.8 secs

     End of self-consistent calculation

          k = 0.0000 0.0000 0.0000 ( 10513 PWs)   bands (ev):

   -13.1132  -4.8190  -3.5568  -3.5559  -0.4363   0.8103   0.8108   1.3214

     occupation numbers 
     1.0000   1.0000   1.0000   1.0000   0.0000   0.0000   0.0000   0.0000

          k = 0.0500 0.0289 0.0000 ( 10513 PWs)   bands (ev):

   -13.0847  -4.7911  -3.8017  -3.6071  -0.2344   0.8041   0.9185   1.3533

     occupation numbers 
     1.0000   1.0000   1.0000   1.0000   0.0000   0.0000   0.0000   0.0000

          k = 0.1000 0.0577 0.0000 ( 10527 PWs)   bands (ev):

   -12.9992  -4.7078  -4.3838  -3.7435   0.0509   0.9714   1.2268   1.4489

     occupation numbers 
     1.0000   1.0000   1.0000   1.0000   0.0000   0.0000   0.0000   0.0000

          k = 0.1500 0.0866 0.0000 ( 10539 PWs)   bands (ev):

   -12.8576  -5.1014  -4.5697  -3.9324  -0.0061   1.5819   1.6080   1.7018

     occupation numbers 
     1.0000   1.0000   1.0000   1.0000   0.0000   0.0000   0.0000   0.0000

          k = 0.2000 0.1155 0.0000 ( 10575 PWs)   bands (ev):

   -12.6610  -5.8574  -4.3780  -4.1403  -0.2220   1.8298   2.2619   2.3099

     occupation numbers 
     1.0000   1.0000   1.0000   1.0000   0.0000   0.0000   0.0000   0.0000

          k = 0.2500 0.1443 0.0000 ( 10565 PWs)   bands (ev):

   -12.4119  -6.6090  -4.3425  -4.1351  -0.4620   1.5423   2.1138   3.0256

     occupation numbers 
     1.0000   1.0000   1.0000   1.0000   0.0000   0.0000   0.0000   0.0000

          k = 0.3000 0.1732 0.0000 ( 10573 PWs)   bands (ev):

   -12.1145  -7.3323  -4.5225  -3.8452  -0.6834   0.8453   2.4580   3.8318

     occupation numbers 
     1.0000   1.0000   1.0000   1.0000   0.0000   0.0000   0.0000   0.0000

          k = 0.3500 0.2021 0.0000 ( 10565 PWs)   bands (ev):

   -11.7773  -8.0085  -4.6702  -3.5169  -0.8672   0.1911   2.8596   4.7170

     occupation numbers 
     1.0000   1.0000   1.0000   1.0000   0.0000   0.0000   0.0000   0.0000

          k = 0.4000 0.2309 0.0000 ( 10567 PWs)   bands (ev):

   -11.4199  -8.6115  -4.7793  -3.1701  -1.0035  -0.3931   3.3113   4.9329

     occupation numbers 
     1.0000   1.0000   1.0000   1.0000   0.0000   0.0000   0.0000   0.0000

          k = 0.4500 0.2598 0.0000 ( 10583 PWs)   bands (ev):

   -11.0962  -9.0839  -4.8461  -2.8579  -1.0871  -0.8493   3.7905   4.9510

     occupation numbers 
     1.0000   1.0000   1.0000   1.0000   0.0000   0.0000   0.0000   0.0000

          k =-0.5000-0.2887 0.0000 ( 10564 PWs)   bands (ev):

   -10.9459  -9.2840  -4.8686  -2.7144  -1.1153  -1.0411   4.1204   4.6624

     occupation numbers 
     1.0000   1.0000   1.0000   1.0000   0.0000   0.0000   0.0000   0.0000

          k = 0.1000 0.0000 0.0000 ( 10531 PWs)   bands (ev):

   -13.0277  -4.7355  -4.2011  -3.7108   0.0466   0.7697   1.2003   1.4170

     occupation numbers 
     1.0000   1.0000   1.0000   1.0000   0.0000   0.0000   0.0000   0.0000

          k = 0.1500 0.0289 0.0000 ( 10533 PWs)   bands (ev):

   -12.9141  -4.8213  -4.6248  -3.8956   0.2257   0.9232   1.5444   1.7575

     occupation numbers 
     1.0000   1.0000   1.0000   1.0000   0.0000   0.0000   0.0000   0.0000

          k = 0.2000 0.0577 0.0000 ( 10543 PWs)   bands (ev):

   -12.7449  -5.5327  -4.4598  -4.1169   0.0738   1.4636   1.7348   2.4898

     occupation numbers 
     1.0000   1.0000   1.0000   1.0000   0.0000   0.0000   0.0000   0.0000

          k = 0.2500 0.0866 0.0000 ( 10562 PWs)   bands (ev):

   -12.5219  -6.2688  -4.3414  -4.2423  -0.1597   1.8600   1.9878   2.1556

     occupation numbers 
     1.0000   1.0000   1.0000   1.0000   0.0000   0.0000   0.0000   0.0000

          k = 0.3000 0.1155 0.0000 ( 10560 PWs)   bands (ev):

   -12.2482  -6.9948  -4.5477  -3.9754  -0.3902   1.1641   2.3019   2.9295

     occupation numbers 
     1.0000   1.0000   1.0000   1.0000   0.0000   0.0000   0.0000   0.0000

          k = 0.3500 0.1443 0.0000 ( 10562 PWs)   bands (ev):

   -11.9295  -7.6880  -4.7229  -3.6650  -0.5908   0.4961   2.6751   3.7574

     occupation numbers 
     1.0000   1.0000   1.0000   1.0000   0.0000   0.0000   0.0000   0.0000

          k = 0.4000 0.1732 0.0000 ( 10567 PWs)   bands (ev):

   -11.5784  -8.3263  -4.8594  -3.3236  -0.7487  -0.1209   3.1024   4.5739

     occupation numbers 
     1.0000   1.0000   1.0000   1.0000   0.0000   0.0000   0.0000   0.0000

          k = 0.4500 0.2021 0.0000 ( 10568 PWs)   bands (ev):

   -11.2265  -8.8724  -4.9524  -2.9831  -0.8570  -0.6486   3.5717   4.6063

     occupation numbers 
     1.0000   1.0000   1.0000   1.0000   0.0000   0.0000   0.0000   0.0000

          k = 0.5000 0.2309 0.0000 ( 10590 PWs)   bands (ev):

   -10.9642  -9.2325  -4.9995  -2.7315  -0.9947  -0.9119   4.0270   4.7678

     occupation numbers 
     1.0000   1.0000   1.0000   1.0000   0.0000   0.0000   0.0000   0.0000

          k =-0.4500-0.3175 0.0000 ( 10590 PWs)   bands (ev):

   -10.9642  -9.2325  -4.9995  -2.7315  -0.9947  -0.9119   4.0270   4.7662

     occupation numbers 
     1.0000   1.0000   1.0000   1.0000   0.0000   0.0000   0.0000   0.0000

          k =-0.4000-0.2887 0.0000 ( 10568 PWs)   bands (ev):

   -11.2265  -8.8724  -4.9524  -2.9831  -0.8570  -0.6486   3.5717   4.6063

     occupation numbers 
     1.0000   1.0000   1.0000   1.0000   0.0000   0.0000   0.0000   0.0000

          k =-0.3500-0.2598 0.0000 ( 10567 PWs)   bands (ev):

   -11.5784  -8.3264  -4.8593  -3.3237  -0.7487  -0.1209   3.1024   4.5747

     occupation numbers 
     1.0000   1.0000   1.0000   1.0000   0.0000   0.0000   0.0000   0.0000

          k =-0.3000-0.2309 0.0000 ( 10562 PWs)   bands (ev):

   -11.9295  -7.6881  -4.7229  -3.6650  -0.5908   0.4961   2.6750   3.7583

     occupation numbers 
     1.0000   1.0000   1.0000   1.0000   0.0000   0.0000   0.0000   0.0000

          k =-0.2500-0.2021 0.0000 ( 10562 PWs)   bands (ev):

   -12.2482  -6.9949  -4.5476  -3.9754  -0.3902   1.1640   2.3019   2.9303

     occupation numbers 
     1.0000   1.0000   1.0000   1.0000   0.0000   0.0000   0.0000   0.0000

          k =-0.2000-0.1732 0.0000 ( 10562 PWs)   bands (ev):

   -12.5219  -6.2689  -4.3412  -4.2423  -0.1597   1.8599   1.9878   2.1564

     occupation numbers 
     1.0000   1.0000   1.0000   1.0000   0.0000   0.0000   0.0000   0.0000

          k =-0.1500-0.1443 0.0000 ( 10543 PWs)   bands (ev):

   -12.7449  -5.5329  -4.4598  -4.1167   0.0738   1.4644   1.7348   2.4891

     occupation numbers 
     1.0000   1.0000   1.0000   1.0000   0.0000   0.0000   0.0000   0.0000

          k =-0.1000-0.1155 0.0000 ( 10533 PWs)   bands (ev):

   -12.9141  -4.8216  -4.6248  -3.8953   0.2257   0.9238   1.5443   1.7568

     occupation numbers 
     1.0000   1.0000   1.0000   1.0000   0.0000   0.0000   0.0000   0.0000

          k =-0.0500-0.0866 0.0000 ( 10531 PWs)   bands (ev):

   -13.0277  -4.7355  -4.2016  -3.7102   0.0467   0.7701   1.1998   1.4170

     occupation numbers 
     1.0000   1.0000   1.0000   1.0000   0.0000   0.0000   0.0000   0.0000

          k =-0.0000-0.0577 0.0000 ( 10513 PWs)   bands (ev):

   -13.0847  -4.7911  -3.8023  -3.6065  -0.2343   0.8044   0.9181   1.3533

     occupation numbers 
     1.0000   1.0000   1.0000   1.0000   0.0000   0.0000   0.0000   0.0000

          k = 0.2000 0.0000 0.0000 ( 10542 PWs)   bands (ev):

   -12.7730  -5.3970  -4.4872  -4.1464   0.5760   0.7726   1.7031   2.5396

     occupation numbers 
     1.0000   1.0000   1.0000   1.0000   0.0000   0.0000   0.0000   0.0000

          k = 0.2500 0.0289 0.0000 ( 10540 PWs)   bands (ev):

   -12.5771  -6.0462  -4.4262  -4.2962   0.4457   1.2453   1.9247   2.0536

     occupation numbers 
     1.0000   1.0000   1.0000   1.0000   0.0000   0.0000   0.0000   0.0000

          k = 0.3000 0.0577 0.0000 ( 10564 PWs)   bands (ev):

   -12.3289  -6.7244  -4.6906  -4.0541   0.2148   1.4046   1.9426   2.2081

     occupation numbers 
     1.0000   1.0000   1.0000   1.0000   0.0000   0.0000   0.0000   0.0000

          k = 0.3500 0.0866 0.0000 ( 10573 PWs)   bands (ev):

   -12.0323  -7.3991  -4.9188  -3.7651   0.0049   0.7585   2.5506   2.7291

     occupation numbers 
     1.0000   1.0000   1.0000   1.0000   0.0000   0.0000   0.0000   0.0000

          k = 0.4000 0.1155 0.0000 ( 10567 PWs)   bands (ev):

   -11.6953  -8.0439  -5.1014  -3.4372  -0.1682   0.1391   2.9506   3.5669

     occupation numbers 
     1.0000   1.0000   1.0000   1.0000   0.0000   0.0000   0.0000   0.0000

          k = 0.4500 0.1443 0.0000 ( 10565 PWs)   bands (ev):

   -11.3368  -8.6288  -5.2340  -3.0894  -0.4239  -0.2963   3.3986   4.3825

     occupation numbers 
     1.0000   1.0000   1.0000   1.0000   0.0000   0.0000   0.0000   0.0000

          k = 0.5000 0.1732 0.0000 ( 10574 PWs)   bands (ev):

   -11.0089  -9.0950  -5.3143  -2.7734  -0.8718  -0.3747   3.8686   3.9735

     occupation numbers 
     1.0000   1.0000   1.0000   1.0000   0.0000   0.0000   0.0000   0.0000

          k = 0.5500 0.2021 0.0000 ( 10576 PWs)   bands (ev):

   -10.8543  -9.2960  -5.3411  -2.6259  -1.0636  -0.4011   3.9441   4.1810

     occupation numbers 
     1.0000   1.0000   1.0000   1.0000   0.0000   0.0000   0.0000   0.0000

          k =-0.4000-0.3464 0.0000 ( 10574 PWs)   bands (ev):

   -11.0089  -9.0950  -5.3142  -2.7734  -0.8718  -0.3747   3.8685   3.9735

     occupation numbers 
     1.0000   1.0000   1.0000   1.0000   0.0000   0.0000   0.0000   0.0000

          k =-0.3500-0.3175 0.0000 ( 10565 PWs)   bands (ev):

   -11.3368  -8.6289  -5.2340  -3.0894  -0.4240  -0.2962   3.3986   4.3830

     occupation numbers 
     1.0000   1.0000   1.0000   1.0000   0.0000   0.0000   0.0000   0.0000

          k =-0.3000-0.2887 0.0000 ( 10565 PWs)   bands (ev):

   -11.6953  -8.0440  -5.1014  -3.4372  -0.1681   0.1390   2.9505   3.5677

     occupation numbers 
     1.0000   1.0000   1.0000   1.0000   0.0000   0.0000   0.0000   0.0000

          k =-0.2500-0.2598 0.0000 ( 10573 PWs)   bands (ev):

   -12.0323  -7.3992  -4.9187  -3.7651   0.0050   0.7584   2.5505   2.7299

     occupation numbers 
     1.0000   1.0000   1.0000   1.0000   0.0000   0.0000   0.0000   0.0000

          k =-0.2000-0.2309 0.0000 ( 10564 PWs)   bands (ev):

   -12.3289  -6.7247  -4.6904  -4.0541   0.2149   1.4044   1.9433   2.2081

     occupation numbers 
     1.0000   1.0000   1.0000   1.0000   0.0000   0.0000   0.0000   0.0000

          k =-0.1500-0.2021 0.0000 ( 10540 PWs)   bands (ev):

   -12.5771  -6.0465  -4.4258  -4.2962   0.4458   1.2460   1.9247   2.0534

     occupation numbers 
     1.0000   1.0000   1.0000   1.0000   0.0000   0.0000   0.0000   0.0000

          k =-0.1000-0.1732 0.0000 ( 10542 PWs)   bands (ev):

   -12.7730  -5.3974  -4.4872  -4.1459   0.5762   0.7731   1.7031   2.5388

     occupation numbers 
     1.0000   1.0000   1.0000   1.0000   0.0000   0.0000   0.0000   0.0000

          k =-0.0500-0.1443 0.0000 ( 10533 PWs)   bands (ev):

   -12.9141  -4.8219  -4.6248  -3.8950   0.2261   0.9234   1.5443   1.7569

     occupation numbers 
     1.0000   1.0000   1.0000   1.0000   0.0000   0.0000   0.0000   0.0000

          k = 0.0000-0.1155 0.0000 ( 10525 PWs)   bands (ev):

   -12.9992  -4.7078  -4.3844  -3.7429   0.0513   0.9713   1.2265   1.4489

     occupation numbers 
     1.0000   1.0000   1.0000   1.0000   0.0000   0.0000   0.0000   0.0000

          k = 0.3000 0.0000 0.0000 ( 10562 PWs)   bands (ev):

   -12.3559  -6.6134  -4.7705  -4.0804   0.9764   1.0629   1.4977   2.1767

     occupation numbers 
     1.0000   1.0000   1.0000   1.0000   0.0000   0.0000   0.0000   0.0000

          k = 0.3500 0.0289 0.0000 ( 10560 PWs)   bands (ev):

   -12.0840  -7.2118  -5.0864  -3.8155   0.7989   0.9189   1.7379   2.4894

     occupation numbers 
     1.0000   1.0000   1.0000   1.0000   0.0000   0.0000   0.0000   0.0000

          k = 0.4000 0.0577 0.0000 ( 10554 PWs)   bands (ev):

   -11.7669  -7.8163  -5.3464  -3.5068   0.3385   0.6163   2.5368   2.8608

     occupation numbers 
     1.0000   1.0000   1.0000   1.0000   0.0000   0.0000   0.0000   0.0000

          k = 0.4500 0.0866 0.0000 ( 10548 PWs)   bands (ev):

   -11.4156  -8.3978  -5.5421  -3.1655  -0.2189   0.4725   3.2731   3.3994

     occupation numbers 
     1.0000   1.0000   1.0000   1.0000   0.0000   0.0000   0.0000   0.0000

          k = 0.5000 0.1155 0.0000 ( 10568 PWs)   bands (ev):

   -11.0587  -8.9150  -5.6722  -2.8204  -0.7142   0.3739   3.4707   3.7340

     occupation numbers 
     1.0000   1.0000   1.0000   1.0000   0.0000   0.0000   0.0000   0.0000

          k = 0.5500 0.1443 0.0000 ( 10579 PWs)   bands (ev):

   -10.7844  -9.2712  -5.7370  -2.5576  -1.0540   0.3239   3.3919   4.1525

     occupation numbers 
     1.0000   1.0000   1.0000   1.0000   0.0000   0.0000   0.0000   0.0000

          k = 0.6000 0.1732 0.0000 ( 10579 PWs)   bands (ev):

   -10.7844  -9.2713  -5.7370  -2.5576  -1.0540   0.3239   3.3919   4.1524

     occupation numbers 
     1.0000   1.0000   1.0000   1.0000   0.0000   0.0000   0.0000   0.0000

          k =-0.3500-0.3753 0.0000 ( 10568 PWs)   bands (ev):

   -11.0587  -8.9150  -5.6721  -2.8204  -0.7143   0.3740   3.4707   3.7339

     occupation numbers 
     1.0000   1.0000   1.0000   1.0000   0.0000   0.0000   0.0000   0.0000

          k =-0.3000-0.3464 0.0000 ( 10548 PWs)   bands (ev):

   -11.4156  -8.3980  -5.5420  -3.1655  -0.2190   0.4726   3.2732   3.4002

     occupation numbers 
     1.0000   1.0000   1.0000   1.0000   0.0000   0.0000   0.0000   0.0000

          k =-0.2500-0.3175 0.0000 ( 10554 PWs)   bands (ev):

   -11.7669  -7.8165  -5.3462  -3.5068   0.3383   0.6164   2.5376   2.8608

     occupation numbers 
     1.0000   1.0000   1.0000   1.0000   0.0000   0.0000   0.0000   0.0000

          k =-0.2000-0.2887 0.0000 ( 10560 PWs)   bands (ev):

   -12.0840  -7.2121  -5.0861  -3.8155   0.7990   0.9187   1.7386   2.4893

     occupation numbers 
     1.0000   1.0000   1.0000   1.0000   0.0000   0.0000   0.0000   0.0000

          k =-0.1500-0.2598 0.0000 ( 10562 PWs)   bands (ev):

   -12.3559  -6.6138  -4.7701  -4.0804   0.9771   1.0631   1.4974   2.1766

     occupation numbers 
     1.0000   1.0000   1.0000   1.0000   0.0000   0.0000   0.0000   0.0000

          k =-0.1000-0.2309 0.0000 ( 10540 PWs)   bands (ev):

   -12.5771  -6.0467  -4.4257  -4.2962   0.4464   1.2454   1.9247   2.0533

     occupation numbers 
     1.0000   1.0000   1.0000   1.0000   0.0000   0.0000   0.0000   0.0000

          k =-0.0500-0.2021 0.0000 ( 10545 PWs)   bands (ev):

   -12.7449  -5.5332  -4.4598  -4.1163   0.0744   1.4637   1.7348   2.4891

     occupation numbers 
     1.0000   1.0000   1.0000   1.0000   0.0000   0.0000   0.0000   0.0000

          k =-0.0000-0.1732 0.0000 ( 10539 PWs)   bands (ev):

   -12.8576  -5.1019  -4.5697  -3.9319  -0.0056   1.5816   1.6080   1.7015

     occupation numbers 
     1.0000   1.0000   1.0000   1.0000   0.0000   0.0000   0.0000   0.0000

          k = 0.4000 0.0000 0.0000 ( 10532 PWs)   bands (ev):

   -11.7909  -7.7241  -5.4505  -3.5302   0.4157   1.4156   1.6604   2.8294

     occupation numbers 
     1.0000   1.0000   1.0000   1.0000   0.0000   0.0000   0.0000   0.0000

          k = 0.4500 0.0289 0.0000 ( 10541 PWs)   bands (ev):

   -11.4564  -8.2475  -5.7440  -3.2050  -0.0913   1.3585   2.3806   3.2238

     occupation numbers 
     1.0000   1.0000   1.0000   1.0000   0.0000   0.0000   0.0000   0.0000

          k = 0.5000 0.0577 0.0000 ( 10567 PWs)   bands (ev):

   -11.0955  -8.7555  -5.9538  -2.8553  -0.5792   1.2488   3.1309   3.2409

     occupation numbers 
     1.0000   1.0000   1.0000   1.0000   0.0000   0.0000   0.0000   0.0000

          k = 0.5500 0.0866 0.0000 ( 10558 PWs)   bands (ev):

   -10.7529  -9.1917  -6.0785  -2.5254  -0.9959   1.1792   2.9785   4.0071

     occupation numbers 
     1.0000   1.0000   1.0000   1.0000   0.0000   0.0000   0.0000   0.0000

          k = 0.6000 0.1155 0.0000 ( 10566 PWs)   bands (ev):

   -10.5801  -9.3967  -6.1198  -2.3607  -1.1903   1.1556   2.9276   4.2829

     occupation numbers 
     1.0000   1.0000   1.0000   1.0027   0.0000   0.0000   0.0000   0.0000

          k = 0.6500 0.1443 0.0000 ( 10558 PWs)   bands (ev):

   -10.7529  -9.1918  -6.0784  -2.5254  -0.9960   1.1793   2.9785   4.0075

     occupation numbers 
     1.0000   1.0000   1.0000   1.0000   0.0000   0.0000   0.0000   0.0000

          k =-0.3000-0.4041 0.0000 ( 10567 PWs)   bands (ev):

   -11.0955  -8.7557  -5.9536  -2.8553  -0.5793   1.2489   3.1310   3.2417

     occupation numbers 
     1.0000   1.0000   1.0000   1.0000   0.0000   0.0000   0.0000   0.0000

          k =-0.2500-0.3753 0.0000 ( 10541 PWs)   bands (ev):

   -11.4563  -8.2478  -5.7438  -3.2050  -0.0914   1.3586   2.3813   3.2240

     occupation numbers 
     1.0000   1.0000   1.0000   1.0000   0.0000   0.0000   0.0000   0.0000

          k =-0.2000-0.3464 0.0000 ( 10532 PWs)   bands (ev):

   -11.7909  -7.7244  -5.4502  -3.5302   0.4155   1.4164   1.6605   2.8293

     occupation numbers 
     1.0000   1.0000   1.0000   1.0000   0.0000   0.0000   0.0000   0.0000

          k =-0.1500-0.3175 0.0000 ( 10560 PWs)   bands (ev):

   -12.0840  -7.2122  -5.0860  -3.8155   0.7996   0.9186   1.7379   2.4893

     occupation numbers 
     1.0000   1.0000   1.0000   1.0000   0.0000   0.0000   0.0000   0.0000

          k =-0.1000-0.2887 0.0000 ( 10564 PWs)   bands (ev):

   -12.3289  -6.7249  -4.6901  -4.0541   0.2155   1.4043   1.9427   2.2081

     occupation numbers 
     1.0000   1.0000   1.0000   1.0000   0.0000   0.0000   0.0000   0.0000

          k =-0.0500-0.2598 0.0000 ( 10562 PWs)   bands (ev):

   -12.5219  -6.2693  -4.3408  -4.2423  -0.1591   1.8597   1.9877   2.1557

     occupation numbers 
     1.0000   1.0000   1.0000   1.0000   0.0000   0.0000   0.0000   0.0000

          k = 0.0000-0.2309 0.0000 ( 10575 PWs)   bands (ev):

   -12.6610  -5.8579  -4.3780  -4.1398  -0.2214   1.8298   2.2616   2.3096

     occupation numbers 
     1.0000   1.0000   1.0000   1.0000   0.0000   0.0000   0.0000   0.0000

          k = 0.5000 0.0000 0.0000 ( 10554 PWs)   bands (ev):

   -11.1088  -8.6897  -6.0623  -2.8681  -0.5250   2.0654   2.3843   3.0090

     occupation numbers 
     1.0000   1.0000   1.0000   1.0000   0.0000   0.0000   0.0000   0.0000

          k = 0.5500 0.0289 0.0000 ( 10567 PWs)   bands (ev):

   -10.7436  -9.1228  -6.2792  -2.5153  -0.9442   2.1044   2.7533   3.1431

     occupation numbers 
     1.0000   1.0000   1.0000   1.0001   0.0000   0.0000   0.0000   0.0000

          k = 0.6000 0.0577 0.0000 ( 10572 PWs)   bands (ev):

   -10.4328  -9.4697  -6.3879  -2.2171  -1.2765   2.0681   2.6245   3.9664

     occupation numbers 
     1.0000   1.0000   1.0000   1.0297   0.0000   0.0000   0.0000   0.0000

          k = 0.6500 0.0866 0.0000 ( 10572 PWs)   bands (ev):

   -10.4328  -9.4698  -6.3878  -2.2171  -1.2766   2.0681   2.6245   3.9671

     occupation numbers 
     1.0000   1.0000   1.0000   1.0297   0.0000   0.0000   0.0000   0.0000

          k = 0.7000 0.1155 0.0000 ( 10567 PWs)   bands (ev):

   -10.7436  -9.1230  -6.2790  -2.5152  -0.9443   2.1046   2.7534   3.1438

     occupation numbers 
     1.0000   1.0000   1.0000   1.0001   0.0000   0.0000   0.0000   0.0000

          k =-0.2500-0.4330 0.0000 ( 10554 PWs)   bands (ev):

   -11.1088  -8.6900  -6.0621  -2.8680  -0.5253   2.0662   2.3844   3.0092

     occupation numbers 
     1.0000   1.0000   1.0000   1.0000   0.0000   0.0000   0.0000   0.0000

          k =-0.2000-0.4041 0.0000 ( 10541 PWs)   bands (ev):

   -11.4563  -8.2479  -5.7436  -3.2050  -0.0915   1.3593   2.3806   3.2239

     occupation numbers 
     1.0000   1.0000   1.0000   1.0000   0.0000   0.0000   0.0000   0.0000

          k =-0.1500-0.3753 0.0000 ( 10554 PWs)   bands (ev):

   -11.7669  -7.8167  -5.3460  -3.5068   0.3382   0.6170   2.5369   2.8608

     occupation numbers 
     1.0000   1.0000   1.0000   1.0000   0.0000   0.0000   0.0000   0.0000

          k =-0.1000-0.3464 0.0000 ( 10573 PWs)   bands (ev):

   -12.0323  -7.3995  -4.9183  -3.7651   0.0056   0.7581   2.5505   2.7292

     occupation numbers 
     1.0000   1.0000   1.0000   1.0000   0.0000   0.0000   0.0000   0.0000

          k =-0.0500-0.3175 0.0000 ( 10560 PWs)   bands (ev):

   -12.2482  -6.9953  -4.5471  -3.9754  -0.3896   1.1638   2.3019   2.9296

     occupation numbers 
     1.0000   1.0000   1.0000   1.0000   0.0000   0.0000   0.0000   0.0000

          k = 0.0000-0.2887 0.0000 ( 10565 PWs)   bands (ev):

   -12.4119  -6.6094  -4.3419  -4.1351  -0.4614   1.5420   2.1137   3.0253

     occupation numbers 
     1.0000   1.0000   1.0000   1.0000   0.0000   0.0000   0.0000   0.0000

          k = 0.6000 0.0000 0.0000 ( 10562 PWs)   bands (ev):

   -10.3786  -9.4932  -6.4850  -2.1634  -1.3066   2.5184   2.8826   3.2048

     occupation numbers 
     1.0000   1.0000   1.0000   1.0529   0.0000   0.0000   0.0000   0.0000

          k = 0.6500 0.0289 0.0000 ( 10570 PWs)   bands (ev):

   -10.1253  -9.7477  -6.5550  -1.9201  -1.5526   2.4388   2.9834   3.8653

     occupation numbers 
     1.0000   1.0000   1.0000   0.8697   0.0151   0.0000   0.0000   0.0000

          k = 0.7000 0.0577 0.0000 ( 10562 PWs)   bands (ev):

   -10.3784  -9.4934  -6.4848  -2.1633  -1.3068   2.5185   2.8833   3.2048

     occupation numbers 
     1.0000   1.0000   1.0000   1.0529   0.0000   0.0000   0.0000   0.0000

          k = 0.7500 0.0866 0.0000 ( 10567 PWs)   bands (ev):

   -10.7436  -9.1231  -6.2789  -2.5152  -0.9444   2.1053   2.7535   3.1430

     occupation numbers 
     1.0000   1.0000   1.0000   1.0001   0.0000   0.0000   0.0000   0.0000

          k =-0.2000-0.4619 0.0000 ( 10567 PWs)   bands (ev):

   -11.0954  -8.7559  -5.9534  -2.8553  -0.5795   1.2496   3.2409   3.6621

     occupation numbers 
     1.0000   1.0000   1.0000   1.0000   0.0000   0.0000   0.0000   0.0000

          k =-0.1500-0.4330 0.0000 ( 10548 PWs)   bands (ev):

   -11.4155  -8.3983  -5.5417  -3.1655  -0.2193   0.4733   3.2731   3.3994

     occupation numbers 
     1.0000   1.0000   1.0000   1.0000   0.0000   0.0000   0.0000   0.0000

          k =-0.1000-0.4041 0.0000 ( 10567 PWs)   bands (ev):

   -11.6953  -8.0443  -5.1010  -3.4372  -0.1675   0.1387   2.9505   3.5670

     occupation numbers 
     1.0000   1.0000   1.0000   1.0000   0.0000   0.0000   0.0000   0.0000

          k =-0.0500-0.3753 0.0000 ( 10562 PWs)   bands (ev):

   -11.9295  -7.6885  -4.7224  -3.6650  -0.5902   0.4958   2.6750   3.7575

     occupation numbers 
     1.0000   1.0000   1.0000   1.0000   0.0000   0.0000   0.0000   0.0000

          k =-0.0000-0.3464 0.0000 ( 10573 PWs)   bands (ev):

   -12.1145  -7.3328  -4.5220  -3.8452  -0.6828   0.8450   2.4580   3.8314

     occupation numbers 
     1.0000   1.0000   1.0000   1.0000   0.0000   0.0000   0.0000   0.0000

          k = 0.7000 0.0000 0.0000 ( 10570 PWs)   bands (ev):

   -10.1251  -9.7480  -6.5549  -1.9200  -1.5528   2.4389   2.9843   3.8645

     occupation numbers 
     1.0000   1.0000   1.0000   0.8692   0.0152   0.0000   0.0000   0.0000

          k = 0.7500 0.0289 0.0000 ( 10572 PWs)   bands (ev):

   -10.4326  -9.4701  -6.3876  -2.2170  -1.2768   2.0689   2.6246   3.9664

     occupation numbers 
     1.0000   1.0000   1.0000   1.0297   0.0000   0.0000   0.0000   0.0000

          k = 0.8000 0.0577 0.0000 ( 10560 PWs)   bands (ev):

   -10.7528  -9.1922  -6.0782  -2.5254  -0.9962   1.1800   2.9787   4.0072

     occupation numbers 
     1.0000   1.0000   1.0000   1.0000   0.0000   0.0000   0.0000   0.0000

          k =-0.1500-0.4907 0.0000 ( 10568 PWs)   bands (ev):

   -11.0586  -8.9154  -5.6718  -2.8203  -0.7146   0.3747   3.4710   3.7339

     occupation numbers 
     1.0000   1.0000   1.0000   1.0000   0.0000   0.0000   0.0000   0.0000

          k =-0.1000-0.4619 0.0000 ( 10565 PWs)   bands (ev):

   -11.3368  -8.6293  -5.2335  -3.0894  -0.4243  -0.2956   3.3985   4.3825

     occupation numbers 
     1.0000   1.0000   1.0000   1.0000   0.0000   0.0000   0.0000   0.0000

          k =-0.0500-0.4330 0.0000 ( 10567 PWs)   bands (ev):

   -11.5784  -8.3268  -4.8589  -3.3236  -0.7481  -0.1213   3.1023   4.5739

     occupation numbers 
     1.0000   1.0000   1.0000   1.0000   0.0000   0.0000   0.0000   0.0000

          k = 0.0000-0.4041 0.0000 ( 10565 PWs)   bands (ev):

   -11.7773  -8.0089  -4.6697  -3.5169  -0.8666   0.1908   2.8595   4.7168

     occupation numbers 
     1.0000   1.0000   1.0000   1.0000   0.0000   0.0000   0.0000   0.0000

          k = 0.8000 0.0000 0.0000 ( 10566 PWs)   bands (ev):

   -10.5799  -9.3971  -6.1195  -2.3606  -1.1907   1.1564   2.9279   4.2828

     occupation numbers 
     1.0000   1.0000   1.0000   1.0027   0.0000   0.0000   0.0000   0.0000

          k = 0.8500 0.0289 0.0000 ( 10577 PWs)   bands (ev):

   -10.7842  -9.2718  -5.7366  -2.5574  -1.0544   0.3246   3.3922   4.1524

     occupation numbers 
     1.0000   1.0000   1.0000   1.0000   0.0000   0.0000   0.0000   0.0000

          k =-0.1000-0.5196 0.0000 ( 10574 PWs)   bands (ev):

   -11.0087  -9.0955  -5.3138  -2.7733  -0.8722  -0.3740   3.8685   3.9739

     occupation numbers 
     1.0000   1.0000   1.0000   1.0000   0.0000   0.0000   0.0000   0.0000

          k =-0.0500-0.4907 0.0000 ( 10570 PWs)   bands (ev):

   -11.2264  -8.8729  -4.9519  -2.9830  -0.8563  -0.6490   3.5716   4.6066

     occupation numbers 
     1.0000   1.0000   1.0000   1.0000   0.0000   0.0000   0.0000   0.0000

          k = 0.0000-0.4619 0.0000 ( 10567 PWs)   bands (ev):

   -11.4199  -8.6120  -4.7788  -3.1700  -1.0029  -0.3934   3.3112   4.9329

     occupation numbers 
     1.0000   1.0000   1.0000   1.0000   0.0000   0.0000   0.0000   0.0000

          k = 0.9000 0.0000 0.0000 ( 10576 PWs)   bands (ev):

   -10.8541  -9.2965  -5.3407  -2.6258  -1.0641  -0.4004   3.9445   4.1810

     occupation numbers 
     1.0000   1.0000   1.0000   1.0000   0.0000   0.0000   0.0000   0.0000

          k =-0.0500-0.5485 0.0000 ( 10590 PWs)   bands (ev):

   -10.9641  -9.2331  -4.9990  -2.7314  -0.9952  -0.9113   4.0270   4.7679

     occupation numbers 
     1.0000   1.0000   1.0000   1.0000   0.0000   0.0000   0.0000   0.0000

          k = 0.0000-0.5196 0.0000 ( 10583 PWs)   bands (ev):

   -11.0961  -9.0845  -4.8456  -2.8578  -1.0865  -0.8497   3.7904   4.9508

     occupation numbers 
     1.0000   1.0000   1.0000   1.0000   0.0000   0.0000   0.0000   0.0000

          k =-1.0000 0.0000 0.0000 ( 10564 PWs)   bands (ev):

   -10.9457  -9.2846  -4.8681  -2.7143  -1.1146  -1.0416   4.1203   4.6621

     occupation numbers 
     1.0000   1.0000   1.0000   1.0000   0.0000   0.0000   0.0000   0.0000

     the Fermi energy is    -1.7887 ev

!    total energy              =     -22.74304965 Ry
     Harris-Foulkes estimate   =     -22.74304965 Ry
     estimated scf accuracy    <          7.9E-12 Ry

     The total energy is the sum of the following terms:

     one-electron contribution =     -38.15349034 Ry
     hartree contribution      =      20.27391685 Ry
     xc contribution           =     -12.16016158 Ry
     ewald contribution        =       7.29658248 Ry
     smearing contrib. (-TS)   =       0.00010295 Ry

     convergence has been achieved in   9 iterations

     negative rho (up, down):  2.048E-06 0.000E+00

     Forces acting on atoms (cartesian axes, Ry/au):

     atom    1 type  1   force =     0.00000000    0.00005826    0.00000000
     atom    2 type  1   force =     0.00000000   -0.00005826    0.00000000
     The non-local contrib.  to forces
     atom    1 type  1   force =     0.00000000    0.00003101    0.00000000
     atom    2 type  1   force =     0.00000000   -0.00003588    0.00000000
     The ionic contribution  to forces
     atom    1 type  1   force =    -0.00000000    0.00007594   -0.00000000
     atom    2 type  1   force =     0.00000000   -0.00007594   -0.00000000
     The local contribution  to forces
     atom    1 type  1   force =     0.00000000   -0.00004491    0.00000000
     atom    2 type  1   force =     0.00000000    0.00004949    0.00000000
     The core correction contribution to forces
     atom    1 type  1   force =     0.00000000   -0.00001293    0.00000000
     atom    2 type  1   force =    -0.00000000   -0.00000576   -0.00000000
     The Hubbard contrib.    to forces
     atom    1 type  1   force =     0.00000000    0.00000000    0.00000000
     atom    2 type  1   force =     0.00000000    0.00000000    0.00000000
     The SCF correction term to forces
     atom    1 type  1   force =    -0.00000000   -0.00000028    0.00000000
     atom    2 type  1   force =    -0.00000000    0.00000041    0.00000000

     Total force =     0.000082     Total SCF correction =     0.000000


     Computing stress (Cartesian axis) and pressure


     negative rho (up, down):  2.048E-06 0.000E+00
          total   stress  (Ry/bohr**3)                   (kbar)     P=    0.04
   0.00000037   0.00000000   0.00000000          0.05      0.00      0.00
   0.00000000   0.00000043   0.00000000          0.00      0.06      0.00
   0.00000000   0.00000000   0.00000001          0.00      0.00      0.00

     kinetic stress (kbar)    497.45      0.00      0.00
                                0.00    497.42      0.00
                                0.00      0.00    627.80

     local   stress (kbar)  -6123.62     -0.00     -0.00
                               -0.00  -6123.77     -0.00
                               -0.00     -0.00   6345.93

     nonloc. stress (kbar)    428.75      0.00      0.00
                                0.00    428.77      0.00
                                0.00      0.00    365.42

     hartree stress (kbar)   2718.79      0.00      0.00
                                0.00   2718.81      0.00
                                0.00      0.00  -2644.37

     exc-cor stress (kbar)    753.94      0.00      0.00
                                0.00    753.95      0.00
                                0.00      0.00    745.30

     corecor stress (kbar)  -1001.12     -0.00      0.00
                               -0.00  -1001.13     -0.00
                                0.00     -0.00   -993.47

     ewald   stress (kbar)   2725.87      0.00     -0.00
                                0.00   2726.02     -0.00
                               -0.00     -0.00  -4446.60

     hubbard stress (kbar)      0.00      0.00      0.00
                                0.00      0.00      0.00
                                0.00      0.00      0.00

     london  stress (kbar)      0.00      0.00      0.00
                                0.00      0.00      0.00
                                0.00      0.00      0.00

     DFT-D3  stress (kbar)      0.00      0.00      0.00
                                0.00      0.00      0.00
                                0.00      0.00      0.00

     XDM     stress (kbar)      0.00      0.00      0.00
                                0.00      0.00      0.00
                                0.00      0.00      0.00

     dft-nl  stress (kbar)      0.00      0.00      0.00
                                0.00      0.00      0.00
                                0.00      0.00      0.00

     TS-vdW  stress (kbar)      0.00      0.00      0.00
                                0.00      0.00      0.00
                                0.00      0.00      0.00



     Writing output data file silicene.save/

     init_run     :      8.90s CPU      9.04s WALL (       1 calls)
     electrons    :    256.90s CPU    258.23s WALL (       1 calls)
     forces       :      3.85s CPU      3.93s WALL (       1 calls)
     stress       :     10.04s CPU     10.18s WALL (       1 calls)

     Called by init_run:
     wfcinit      :      7.83s CPU      7.90s WALL (       1 calls)
     wfcinit:atom :      0.21s CPU      0.22s WALL (     111 calls)
     wfcinit:wfcr :      6.83s CPU      6.88s WALL (     111 calls)
     potinit      :      0.19s CPU      0.20s WALL (       1 calls)
     hinit0       :      0.70s CPU      0.70s WALL (       1 calls)

     Called by electrons:
     c_bands      :    214.77s CPU    215.36s WALL (      10 calls)
     sum_band     :     39.91s CPU     40.51s WALL (      10 calls)
     v_of_rho     :      0.82s CPU      0.83s WALL (      10 calls)
     v_h          :      0.06s CPU      0.06s WALL (      10 calls)
     v_xc         :      0.91s CPU      0.92s WALL (      12 calls)
     newd         :      1.49s CPU      1.69s WALL (      10 calls)
     mix_rho      :      0.11s CPU      0.11s WALL (      10 calls)

     Called by c_bands:
     init_us_2    :      7.26s CPU      7.28s WALL (    2553 calls)
     cegterg      :    192.14s CPU    192.69s WALL (    1110 calls)

     Called by sum_band:
     sum_band:bec :      0.02s CPU      0.02s WALL (    1110 calls)
     addusdens    :      1.63s CPU      2.15s WALL (      10 calls)

     Called by *egterg:
     h_psi        :    158.69s CPU    159.22s WALL (    4264 calls)
     s_psi        :     16.23s CPU     16.25s WALL (    4264 calls)
     g_psi        :      0.93s CPU      0.94s WALL (    3043 calls)
     cdiaghg      :      0.49s CPU      0.50s WALL (    4042 calls)
     cegterg:over :      8.73s CPU      8.76s WALL (    3043 calls)
     cegterg:upda :      6.07s CPU      6.09s WALL (    3043 calls)
     cegterg:last :      3.46s CPU      3.47s WALL (    1124 calls)

     Called by h_psi:
     h_psi:pot    :    158.15s CPU    158.68s WALL (    4264 calls)
     h_psi:calbec :     16.72s CPU     16.77s WALL (    4264 calls)
     vloc_psi     :    125.29s CPU    125.75s WALL (    4264 calls)
     add_vuspsi   :     16.11s CPU     16.13s WALL (    4264 calls)

     General routines
     calbec       :     25.95s CPU     26.08s WALL (    5929 calls)
     fft          :      0.59s CPU      0.59s WALL (     136 calls)
     ffts         :      0.03s CPU      0.03s WALL (      10 calls)
     fftw         :    135.12s CPU    135.65s WALL (   56586 calls)

     Parallel routines

     PWSCF        :   4m40.45s CPU   4m42.40s WALL


   This run was terminated on:   1:36:58  23Sep2023            

=------------------------------------------------------------------------------=
   JOB DONE.
=------------------------------------------------------------------------------=
