### Running on host: LAPTOP-C0A2DPIS

     Program PWSCF v.6.4.1 starts on 22Sep2023 at 21: 9:24 

     This program is part of the open-source Quantum ESPRESSO suite
     for quantum simulation of materials; please cite
         "P. Giannozzi et al., J. Phys.:Condens. Matter 21 395502 (2009);
         "P. Giannozzi et al., J. Phys.:Condens. Matter 29 465901 (2017);
          URL http://www.quantum-espresso.org", 
     in publications or presentations arising from this work. More details at
     http://www.quantum-espresso.org/quote

     Parallel version (MPI), running on     1 processors

     MPI processes distributed on     1 nodes
     Reading input from silicene_scf_ecutwfc-40.in

     Current dimensions of program PWSCF are:
     Max number of different atomic species (ntypx) = 10
     Max number of k-points (npk) =  40000
     Max angular momentum in pseudopotentials (lmaxx) =  3
     Message from routine read_upf::
     Pseudo file Si.pbe-n-rrkjus_psl.1.0.0.UPF has been fixed on the fly.
To avoid this message in the future, permanently fix 
 your pseudo files following these instructions: 
https://gitlab.com/QEF/q-e/blob/master/upftools/how_to_fix_upf.md

     Subspace diagonalization in iterative solution of the eigenvalue problem:
     a serial algorithm will be used

     Message from routine setup:
     DEPRECATED: symmetry with ibrav=0, use correct ibrav instead

     G-vector sticks info
     --------------------
     sticks:   dense  smooth     PW     G-vecs:    dense   smooth      PW
     Sum         859     583    187                64713    35313    6457



     bravais-lattice index     =            0
     lattice parameter (alat)  =       7.2375  a.u.
     unit-cell volume          =    1032.2806 (a.u.)^3
     number of atoms/cell      =            2
     number of atomic types    =            1
     number of electrons       =         8.00
     number of Kohn-Sham states=            8
     kinetic-energy cutoff     =      40.0000  Ry
     charge density cutoff     =     240.0000  Ry
     convergence threshold     =      4.0E-10
     mixing beta               =       0.4000
     number of iterations used =            8  plain     mixing
     Exchange-correlation      = PBE ( 1  4  3  4 0 0)

     celldm(1)=   7.237514  celldm(2)=   0.000000  celldm(3)=   0.000000
     celldm(4)=   0.000000  celldm(5)=   0.000000  celldm(6)=   0.000000

     crystal axes: (cart. coord. in units of alat)
               a(1) = (   0.502620  -0.864507   0.000000 )  
               a(2) = (   0.502620   0.864507   0.000000 )  
               a(3) = (   0.000000   0.000000   3.133218 )  

     reciprocal axes: (cart. coord. in units 2 pi/alat)
               b(1) = (  0.994786 -0.578364  0.000000 )  
               b(2) = (  0.994786  0.578364 -0.000000 )  
               b(3) = ( -0.000000  0.000000  0.319161 )  


     PseudoPot. # 1 for Si read from file:
     /home/meyn/q-e-qe-7.1/pseudo/Si.pbe-n-rrkjus_psl.1.0.0.UPF
     MD5 check sum: 56671f82560c68743c116fe4c72cdc4c
     Pseudo is Ultrasoft + core correction, Zval =  4.0
     Generated using "atomic" code by A. Dal Corso v.5.1.2
     Using radial grid of 1141 points,  6 beta functions with: 
                l(1) =   0
                l(2) =   0
                l(3) =   1
                l(4) =   1
                l(5) =   2
                l(6) =   2
     Q(r) pseudized with 0 coefficients 


     atomic species   valence    mass     pseudopotential
        Si             4.00    28.08550     Si( 1.00)

      4 Sym. Ops. (no inversion) found


                                    s                        frac. trans.

      isym =  1     identity                                     

 cryst.   s( 1) = (     1          0          0      )
                  (     0          1          0      )
                  (     0          0          1      )

 cart.    s( 1) = (  1.0000000  0.0000000  0.0000000 )
                  (  0.0000000  1.0000000  0.0000000 )
                  (  0.0000000  0.0000000  1.0000000 )


      isym =  2     180 deg rotation - cart. axis [0,1,0]        

 cryst.   s( 2) = (     0         -1          0      )
                  (    -1          0          0      )
                  (     0          0         -1      )

 cart.    s( 2) = ( -1.0000000  0.0000000  0.0000000 )
                  (  0.0000000  1.0000000  0.0000000 )
                  (  0.0000000  0.0000000 -1.0000000 )


      isym =  3     inv. 180 deg rotation - cart. axis [0,0,1]   

 cryst.   s( 3) = (     1          0          0      )
                  (     0          1          0      )
                  (     0          0         -1      )

 cart.    s( 3) = (  1.0000000  0.0000000  0.0000000 )
                  (  0.0000000  1.0000000  0.0000000 )
                  (  0.0000000  0.0000000 -1.0000000 )


      isym =  4     inv. 180 deg rotation - cart. axis [1,0,0]   

 cryst.   s( 4) = (     0         -1          0      )
                  (    -1          0          0      )
                  (     0          0          1      )

 cart.    s( 4) = ( -1.0000000  0.0000000  0.0000000 )
                  (  0.0000000  1.0000000  0.0000000 )
                  (  0.0000000  0.0000000  1.0000000 )


   Cartesian axes

     site n.     atom                  positions (alat units)
         1           Si  tau(   1) = (   0.0000000   0.0000000   0.0000000  )
         2           Si  tau(   2) = (   0.5026205   0.2939324   0.0000000  )

   Crystallographic axes

     site n.     atom                  positions (cryst. coord.)
         1           Si  tau(   1) = (  0.0000000  0.0000000  0.0000000  )
         2           Si  tau(   2) = (  0.3300000  0.6700000  0.0000000  )

     number of k points=    31  Marzari-Vanderbilt smearing, width (Ry)=  0.0147
                       cart. coord. in units 2pi/alat
        k(    1) = (   0.0000000   0.0000000   0.0000000), wk =   0.0200000
        k(    2) = (   0.0994786   0.0578364   0.0000000), wk =   0.0800000
        k(    3) = (   0.1989573   0.1156728   0.0000000), wk =   0.0800000
        k(    4) = (   0.2984359   0.1735093   0.0000000), wk =   0.0800000
        k(    5) = (   0.3979146   0.2313457   0.0000000), wk =   0.0800000
        k(    6) = (  -0.4973932  -0.2891821   0.0000000), wk =   0.0400000
        k(    7) = (   0.1989573   0.0000000   0.0000000), wk =   0.0400000
        k(    8) = (   0.2984359   0.0578364   0.0000000), wk =   0.0800000
        k(    9) = (   0.3979146   0.1156728   0.0000000), wk =   0.0800000
        k(   10) = (   0.4973932   0.1735093   0.0000000), wk =   0.0800000
        k(   11) = (  -0.3979146  -0.3470185   0.0000000), wk =   0.0800000
        k(   12) = (  -0.2984359  -0.2891821   0.0000000), wk =   0.0800000
        k(   13) = (  -0.1989573  -0.2313457   0.0000000), wk =   0.0800000
        k(   14) = (  -0.0994786  -0.1735093   0.0000000), wk =   0.0800000
        k(   15) = (   0.0000000  -0.1156728   0.0000000), wk =   0.0400000
        k(   16) = (   0.3979146   0.0000000   0.0000000), wk =   0.0400000
        k(   17) = (   0.4973932   0.0578364   0.0000000), wk =   0.0800000
        k(   18) = (   0.5968718   0.1156728   0.0000000), wk =   0.0800000
        k(   19) = (  -0.2984359  -0.4048549   0.0000000), wk =   0.0800000
        k(   20) = (  -0.1989573  -0.3470185   0.0000000), wk =   0.0800000
        k(   21) = (  -0.0994786  -0.2891821   0.0000000), wk =   0.0800000
        k(   22) = (   0.0000000  -0.2313457   0.0000000), wk =   0.0400000
        k(   23) = (   0.5968718   0.0000000   0.0000000), wk =   0.0400000
        k(   24) = (   0.6963505   0.0578364   0.0000000), wk =   0.0800000
        k(   25) = (  -0.1989573  -0.4626914   0.0000000), wk =   0.0800000
        k(   26) = (  -0.0994786  -0.4048549   0.0000000), wk =   0.0800000
        k(   27) = (  -0.0000000  -0.3470185   0.0000000), wk =   0.0400000
        k(   28) = (   0.7958291   0.0000000   0.0000000), wk =   0.0400000
        k(   29) = (  -0.0994786  -0.5205278   0.0000000), wk =   0.0800000
        k(   30) = (   0.0000000  -0.4626914   0.0000000), wk =   0.0400000
        k(   31) = (  -0.9947864   0.0000000   0.0000000), wk =   0.0200000

                       cryst. coord.
        k(    1) = (   0.0000000   0.0000000   0.0000000), wk =   0.0200000
        k(    2) = (   0.0000000   0.1000000   0.0000000), wk =   0.0800000
        k(    3) = (   0.0000000   0.2000000   0.0000000), wk =   0.0800000
        k(    4) = (   0.0000000   0.3000000   0.0000000), wk =   0.0800000
        k(    5) = (   0.0000000   0.4000000   0.0000000), wk =   0.0800000
        k(    6) = (   0.0000000  -0.5000000   0.0000000), wk =   0.0400000
        k(    7) = (   0.1000000   0.1000000   0.0000000), wk =   0.0400000
        k(    8) = (   0.1000000   0.2000000   0.0000000), wk =   0.0800000
        k(    9) = (   0.1000000   0.3000000   0.0000000), wk =   0.0800000
        k(   10) = (   0.1000000   0.4000000   0.0000000), wk =   0.0800000
        k(   11) = (   0.1000000  -0.5000000   0.0000000), wk =   0.0800000
        k(   12) = (   0.1000000  -0.4000000   0.0000000), wk =   0.0800000
        k(   13) = (   0.1000000  -0.3000000   0.0000000), wk =   0.0800000
        k(   14) = (   0.1000000  -0.2000000   0.0000000), wk =   0.0800000
        k(   15) = (   0.1000000  -0.1000000   0.0000000), wk =   0.0400000
        k(   16) = (   0.2000000   0.2000000   0.0000000), wk =   0.0400000
        k(   17) = (   0.2000000   0.3000000   0.0000000), wk =   0.0800000
        k(   18) = (   0.2000000   0.4000000   0.0000000), wk =   0.0800000
        k(   19) = (   0.2000000  -0.5000000   0.0000000), wk =   0.0800000
        k(   20) = (   0.2000000  -0.4000000   0.0000000), wk =   0.0800000
        k(   21) = (   0.2000000  -0.3000000   0.0000000), wk =   0.0800000
        k(   22) = (   0.2000000  -0.2000000   0.0000000), wk =   0.0400000
        k(   23) = (   0.3000000   0.3000000   0.0000000), wk =   0.0400000
        k(   24) = (   0.3000000   0.4000000   0.0000000), wk =   0.0800000
        k(   25) = (   0.3000000  -0.5000000   0.0000000), wk =   0.0800000
        k(   26) = (   0.3000000  -0.4000000   0.0000000), wk =   0.0800000
        k(   27) = (   0.3000000  -0.3000000   0.0000000), wk =   0.0400000
        k(   28) = (   0.4000000   0.4000000   0.0000000), wk =   0.0400000
        k(   29) = (   0.4000000  -0.5000000   0.0000000), wk =   0.0800000
        k(   30) = (   0.4000000  -0.4000000   0.0000000), wk =   0.0400000
        k(   31) = (  -0.5000000  -0.5000000   0.0000000), wk =   0.0200000

     Dense  grid:    64713 G-vectors     FFT dimensions: (  36,  36, 120)

     Smooth grid:    35313 G-vectors     FFT dimensions: (  30,  30,  96)

     Dynamical RAM for                 wfc:       0.54 MB

     Dynamical RAM for     wfc (w. buffer):      17.23 MB

     Dynamical RAM for           str. fact:       0.99 MB

     Dynamical RAM for           local pot:       0.00 MB

     Dynamical RAM for          nlocal pot:       2.42 MB

     Dynamical RAM for                qrad:       1.43 MB

     Dynamical RAM for          rho,v,vnew:       6.52 MB

     Dynamical RAM for               rhoin:       2.17 MB

     Dynamical RAM for            rho*nmix:      15.80 MB

     Dynamical RAM for           G-vectors:       3.97 MB

     Dynamical RAM for          h,s,v(r/c):       0.05 MB

     Dynamical RAM for          <psi|beta>:       0.00 MB

     Dynamical RAM for                 psi:       2.15 MB

     Dynamical RAM for                hpsi:       2.15 MB

     Dynamical RAM for                spsi:       2.15 MB

     Dynamical RAM for      wfcinit/wfcrot:       1.08 MB

     Dynamical RAM for           addusdens:     185.64 MB

     Dynamical RAM for          addusforce:     188.12 MB

     Dynamical RAM for         addusstress:     198.48 MB

     Estimated static dynamical RAM per process >      58.44 MB

     Estimated max dynamical RAM per process >     256.92 MB

     Initial potential from superposition of free atoms

     starting charge    7.99888, renormalised to    8.00000

     negative rho (up, down):  3.014E-06 0.000E+00
     Starting wfcs are    8 randomized atomic wfcs

     total cpu time spent up to now is        2.8 secs

     Self-consistent Calculation

     iteration #  1     ecut=    40.00 Ry     beta= 0.40
     Davidson diagonalization with overlap
     ethr =  1.00E-02,  avg # of iterations =  4.7

     Threshold (ethr) on eigenvalues was too large:
     Diagonalizing with lowered threshold

     Davidson diagonalization with overlap
     ethr =  9.17E-04,  avg # of iterations =  1.2

     negative rho (up, down):  1.975E-06 0.000E+00

     total cpu time spent up to now is       10.8 secs

     total energy              =     -22.74159113 Ry
     Harris-Foulkes estimate   =     -22.76145545 Ry
     estimated scf accuracy    <       0.07236333 Ry

     iteration #  2     ecut=    40.00 Ry     beta= 0.40
     Davidson diagonalization with overlap
     ethr =  9.05E-04,  avg # of iterations =  1.0

     negative rho (up, down):  2.316E-06 0.000E+00

     total cpu time spent up to now is       14.0 secs

     total energy              =     -22.73819755 Ry
     Harris-Foulkes estimate   =     -22.74390935 Ry
     estimated scf accuracy    <       0.01724151 Ry

     iteration #  3     ecut=    40.00 Ry     beta= 0.40
     Davidson diagonalization with overlap
     ethr =  2.16E-04,  avg # of iterations =  3.8

     negative rho (up, down):  1.741E-06 0.000E+00

     total cpu time spent up to now is       18.0 secs

     total energy              =     -22.74003979 Ry
     Harris-Foulkes estimate   =     -22.74023538 Ry
     estimated scf accuracy    <       0.00062443 Ry

     iteration #  4     ecut=    40.00 Ry     beta= 0.40
     Davidson diagonalization with overlap
     ethr =  7.81E-06,  avg # of iterations =  5.3

     negative rho (up, down):  1.797E-06 0.000E+00

     total cpu time spent up to now is       22.6 secs

     total energy              =     -22.74013070 Ry
     Harris-Foulkes estimate   =     -22.74023048 Ry
     estimated scf accuracy    <       0.00016144 Ry

     iteration #  5     ecut=    40.00 Ry     beta= 0.40
     Davidson diagonalization with overlap
     ethr =  2.02E-06,  avg # of iterations =  2.8

     negative rho (up, down):  1.866E-06 0.000E+00

     total cpu time spent up to now is       26.5 secs

     total energy              =     -22.74016315 Ry
     Harris-Foulkes estimate   =     -22.74016491 Ry
     estimated scf accuracy    <       0.00000407 Ry

     iteration #  6     ecut=    40.00 Ry     beta= 0.40
     Davidson diagonalization with overlap
     ethr =  5.09E-08,  avg # of iterations =  2.2

     negative rho (up, down):  1.897E-06 0.000E+00

     total cpu time spent up to now is       30.3 secs

     total energy              =     -22.74016411 Ry
     Harris-Foulkes estimate   =     -22.74016406 Ry
     estimated scf accuracy    <       0.00000008 Ry

     iteration #  7     ecut=    40.00 Ry     beta= 0.40
     Davidson diagonalization with overlap
     ethr =  1.05E-09,  avg # of iterations =  2.2

     negative rho (up, down):  1.916E-06 0.000E+00

     total cpu time spent up to now is       33.9 secs

     total energy              =     -22.74016411 Ry
     Harris-Foulkes estimate   =     -22.74016414 Ry
     estimated scf accuracy    <       0.00000007 Ry

     iteration #  8     ecut=    40.00 Ry     beta= 0.40
     Davidson diagonalization with overlap
     ethr =  9.15E-10,  avg # of iterations =  1.7

     negative rho (up, down):  1.931E-06 0.000E+00

     total cpu time spent up to now is       37.4 secs

     total energy              =     -22.74016411 Ry
     Harris-Foulkes estimate   =     -22.74016411 Ry
     estimated scf accuracy    <          4.7E-09 Ry

     iteration #  9     ecut=    40.00 Ry     beta= 0.40
     Davidson diagonalization with overlap
     ethr =  5.90E-11,  avg # of iterations =  2.1

     negative rho (up, down):  1.960E-06 0.000E+00

     total cpu time spent up to now is       41.0 secs

     End of self-consistent calculation

          k = 0.0000 0.0000 0.0000 (  4427 PWs)   bands (ev):

   -13.2224  -4.8633  -3.4922  -3.3428   0.1596   0.8457   1.1131   1.3578

     occupation numbers 
     1.0000   1.0000   1.0000   1.0000   0.0000   0.0000   0.0000   0.0000

          k = 0.0995 0.0578 0.0000 (  4414 PWs)   bands (ev):

   -13.1046  -4.7483  -4.2095  -3.6395   0.4584   1.2345   1.4831   1.4918

     occupation numbers 
     1.0000   1.0000   1.0000   1.0000   0.0000   0.0000   0.0000   0.0000

          k = 0.1990 0.1157 0.0000 (  4419 PWs)   bands (ev):

   -12.7552  -5.7088  -4.4074  -4.0498   0.0098   1.8816   2.5314   2.5833

     occupation numbers 
     1.0000   1.0000   1.0000   1.0000   0.0000   0.0000   0.0000   0.0000

          k = 0.2984 0.1735 0.0000 (  4404 PWs)   bands (ev):

   -12.1913  -7.2267  -4.4417  -3.8570  -0.4811   1.0432   2.5294   4.1426

     occupation numbers 
     1.0000   1.0000   1.0000   1.0000   0.0000   0.0000   0.0000   0.0000

          k = 0.3979 0.2313 0.0000 (  4407 PWs)   bands (ev):

   -11.4771  -8.5441  -4.7048  -3.1613  -0.8127  -0.2473   3.4094   5.0861

     occupation numbers 
     1.0000   1.0000   1.0000   1.0000   0.0000   0.0000   0.0000   0.0000

          k =-0.4974-0.2892 0.0000 (  4400 PWs)   bands (ev):

   -10.9948  -9.2314  -4.7962  -2.6960  -0.9279  -0.9153   4.2412   4.8298

     occupation numbers 
     1.0000   1.0000   1.0000   1.0000   0.0000   0.0000   0.0000   0.0000

          k = 0.1990 0.0000 0.0000 (  4413 PWs)   bands (ev):

   -12.8733  -5.1847  -4.5224  -4.1215   0.8462   1.1126   1.7502   2.9155

     occupation numbers 
     1.0000   1.0000   1.0000   1.0000   0.0000   0.0000   0.0000   0.0000

          k = 0.2984 0.0578 0.0000 (  4409 PWs)   bands (ev):

   -12.4171  -6.5540  -4.6762  -4.0769   0.4563   1.6594   2.2607   2.3260

     occupation numbers 
     1.0000   1.0000   1.0000   1.0000   0.0000   0.0000   0.0000   0.0000

          k = 0.3979 0.1157 0.0000 (  4412 PWs)   bands (ev):

   -11.7663  -7.9266  -5.0804  -3.4419   0.0629   0.3312   3.0328   3.9695

     occupation numbers 
     1.0000   1.0000   1.0000   1.0000   0.0000   0.0000   0.0000   0.0000

          k = 0.4974 0.1735 0.0000 (  4409 PWs)   bands (ev):

   -11.0628  -9.0187  -5.2819  -2.7594  -0.7257  -0.1543   3.9804   4.1054

     occupation numbers 
     1.0000   1.0000   1.0000   1.0000   0.0000   0.0000   0.0000   0.0000

          k =-0.3979-0.3470 0.0000 (  4407 PWs)   bands (ev):

   -11.0489  -9.0424  -5.2665  -2.7474  -0.7453  -0.1616   3.9925   4.1292

     occupation numbers 
     1.0000   1.0000   1.0000   1.0000   0.0000   0.0000   0.0000   0.0000

          k =-0.2984-0.2892 0.0000 (  4411 PWs)   bands (ev):

   -11.7493  -7.9749  -5.0329  -3.4270   0.0432   0.2939   3.0434   3.8863

     occupation numbers 
     1.0000   1.0000   1.0000   1.0000   0.0000   0.0000   0.0000   0.0000

          k =-0.1990-0.2313 0.0000 (  4408 PWs)   bands (ev):

   -12.4045  -6.6253  -4.5931  -4.0659   0.4333   1.6138   2.2390   2.2796

     occupation numbers 
     1.0000   1.0000   1.0000   1.0000   0.0000   0.0000   0.0000   0.0000

          k =-0.0995-0.1735 0.0000 (  4417 PWs)   bands (ev):

   -12.8658  -5.2818  -4.5158  -4.0062   0.9070   0.9849   1.7541   2.9041

     occupation numbers 
     1.0000   1.0000   1.0000   1.0000   0.0000   0.0000   0.0000   0.0000

          k = 0.0000-0.1157 0.0000 (  4405 PWs)   bands (ev):

   -13.1021  -4.7462  -4.2831  -3.5567   0.4570   1.2980   1.3878   1.4912

     occupation numbers 
     1.0000   1.0000   1.0000   1.0000   0.0000   0.0000   0.0000   0.0000

          k = 0.3979 0.0000 0.0000 (  4401 PWs)   bands (ev):

   -11.8668  -7.5574  -5.4858  -3.5397   0.6442   1.5410   2.1812   2.9088

     occupation numbers 
     1.0000   1.0000   1.0000   1.0000   0.0000   0.0000   0.0000   0.0000

          k = 0.4974 0.0578 0.0000 (  4405 PWs)   bands (ev):

   -11.1559  -8.6249  -5.9924  -2.8473  -0.3914   1.5070   3.1960   3.6288

     occupation numbers 
     1.0000   1.0000   1.0000   1.0000   0.0000   0.0000   0.0000   0.0000

          k = 0.5969 0.1157 0.0000 (  4407 PWs)   bands (ev):

   -10.6174  -9.3139  -6.1387  -2.3288  -1.0467   1.4194   3.0099   4.4507

     occupation numbers 
     1.0000   1.0000   1.0000   1.0410   0.0000   0.0000   0.0000   0.0000

          k =-0.2984-0.4049 0.0000 (  4400 PWs)   bands (ev):

   -11.1149  -8.7073  -5.9424  -2.8118  -0.4546   1.5068   3.2413   3.5362

     occupation numbers 
     1.0000   1.0000   1.0000   1.0000   0.0000   0.0000   0.0000   0.0000

          k =-0.1990-0.3470 0.0000 (  4406 PWs)   bands (ev):

   -11.8338  -7.6635  -5.3972  -3.5108   0.5713   1.6310   1.9757   2.9249

     occupation numbers 
     1.0000   1.0000   1.0000   1.0000   0.0000   0.0000   0.0000   0.0000

          k =-0.0995-0.2892 0.0000 (  4403 PWs)   bands (ev):

   -12.3954  -6.6492  -4.5864  -4.0579   0.4540   1.6024   2.2155   2.2808

     occupation numbers 
     1.0000   1.0000   1.0000   1.0000   0.0000   0.0000   0.0000   0.0000

          k = 0.0000-0.2313 0.0000 (  4415 PWs)   bands (ev):

   -12.7446  -5.7664  -4.3980  -3.9991   0.0315   1.8878   2.4545   2.5069

     occupation numbers 
     1.0000   1.0000   1.0000   1.0000   0.0000   0.0000   0.0000   0.0000

          k = 0.5969 0.0000 0.0000 (  4409 PWs)   bands (ev):

   -10.4307  -9.3685  -6.5438  -2.1417  -1.1345   2.5656   3.0421   3.7254

     occupation numbers 
     1.0000   1.0000   1.0000   1.0451   0.0000   0.0000   0.0000   0.0000

          k = 0.6964 0.0578 0.0000 (  4420 PWs)   bands (ev):

   -10.3426  -9.4832  -6.5161  -2.0682  -1.2245   2.5849   3.1193   3.5420

     occupation numbers 
     1.0000   1.0000   1.0000   0.8949   0.0000   0.0000   0.0000   0.0000

          k =-0.1990-0.4627 0.0000 (  4410 PWs)   bands (ev):

   -11.0833  -8.7544  -5.9328  -2.7854  -0.4882   1.4838   3.2396   3.5645

     occupation numbers 
     1.0000   1.0000   1.0000   1.0000   0.0000   0.0000   0.0000   0.0000

          k =-0.0995-0.4049 0.0000 (  4412 PWs)   bands (ev):

   -11.7174  -8.0278  -5.0275  -3.3997   0.0401   0.2586   3.0571   3.8860

     occupation numbers 
     1.0000   1.0000   1.0000   1.0000   0.0000   0.0000   0.0000   0.0000

          k =-0.0000-0.3470 0.0000 (  4406 PWs)   bands (ev):

   -12.1632  -7.2902  -4.4161  -3.8326  -0.4790   1.0030   2.5434   4.0574

     occupation numbers 
     1.0000   1.0000   1.0000   1.0000   0.0000   0.0000   0.0000   0.0000

          k = 0.7958 0.0000 0.0000 (  4408 PWs)   bands (ev):

   -10.4824  -9.4838  -6.1089  -2.2206  -1.1750   1.3864   3.0243   4.5315

     occupation numbers 
     1.0000   1.0000   1.0000   1.0828   0.0000   0.0000   0.0000   0.0000

          k =-0.0995-0.5205 0.0000 (  4411 PWs)   bands (ev):

   -10.9518  -9.1677  -5.2550  -2.6675  -0.8395  -0.1810   4.0268   4.1163

     occupation numbers 
     1.0000   1.0000   1.0000   1.0000   0.0000   0.0000   0.0000   0.0000

          k = 0.0000-0.4627 0.0000 (  4408 PWs)   bands (ev):

   -11.4091  -8.6428  -4.6931  -3.1037  -0.8243  -0.3203   3.4366   5.0999

     occupation numbers 
     1.0000   1.0000   1.0000   1.0000   0.0000   0.0000   0.0000   0.0000

          k =-0.9948 0.0000 0.0000 (  4408 PWs)   bands (ev):

   -10.8576  -9.3981  -4.7889  -2.5849  -1.0417  -0.9439   4.3100   4.8105

     occupation numbers 
     1.0000   1.0000   1.0000   1.0004   0.0000   0.0000   0.0000   0.0000

     the Fermi energy is    -1.9282 ev

!    total energy              =     -22.74016411 Ry
     Harris-Foulkes estimate   =     -22.74016411 Ry
     estimated scf accuracy    <          1.4E-10 Ry

     The total energy is the sum of the following terms:

     one-electron contribution =     -39.49716350 Ry
     hartree contribution      =      20.98687114 Ry
     xc contribution           =     -12.21474572 Ry
     ewald contribution        =       7.98458886 Ry
     smearing contrib. (-TS)   =       0.00028509 Ry

     convergence has been achieved in   9 iterations

     negative rho (up, down):  1.960E-06 0.000E+00

     Forces acting on atoms (cartesian axes, Ry/au):

     atom    1 type  1   force =     0.00000000    0.02202499    0.00000000
     atom    2 type  1   force =     0.00000000   -0.02202499    0.00000000
     The non-local contrib.  to forces
     atom    1 type  1   force =     0.00000000    0.02352165    0.00000000
     atom    2 type  1   force =     0.00000000   -0.02356486    0.00000000
     The ionic contribution  to forces
     atom    1 type  1   force =    -0.00000000    0.06637603   -0.00000000
     atom    2 type  1   force =     0.00000000   -0.06637603   -0.00000000
     The local contribution  to forces
     atom    1 type  1   force =     0.00000000   -0.06512384    0.00000000
     atom    2 type  1   force =     0.00000000    0.06513055    0.00000000
     The core correction contribution to forces
     atom    1 type  1   force =    -0.00000000   -0.00276174   -0.00000000
     atom    2 type  1   force =    -0.00000000    0.00277444   -0.00000000
     The Hubbard contrib.    to forces
     atom    1 type  1   force =     0.00000000    0.00000000    0.00000000
     atom    2 type  1   force =     0.00000000    0.00000000    0.00000000
     The SCF correction term to forces
     atom    1 type  1   force =    -0.00000000    0.00000101    0.00000000
     atom    2 type  1   force =    -0.00000000   -0.00000100    0.00000000

     Total force =     0.031148     Total SCF correction =     0.000001


     Computing stress (Cartesian axis) and pressure


     negative rho (up, down):  1.960E-06 0.000E+00
          total   stress  (Ry/bohr**3)                   (kbar)     P=   12.43
   0.00008717   0.00000000  -0.00000000         12.82      0.00     -0.00
   0.00000000   0.00016653   0.00000000          0.00     24.50      0.00
   0.00000000   0.00000000  -0.00000024          0.00      0.00     -0.03

     kinetic stress (kbar)    527.61      0.00      0.00
                                0.00    525.45      0.00
                                0.00      0.00    656.13

     local   stress (kbar)  -6541.61     -0.00     -0.00
                               -0.00  -6588.58     -0.00
                               -0.00     -0.00   6824.14

     nonloc. stress (kbar)    447.72     -0.00      0.00
                                0.00    454.63      0.00
                                0.00      0.00    379.03

     hartree stress (kbar)   2913.56      0.00     -0.00
                                0.00   2919.89      0.00
                               -0.00      0.00  -2842.71

     exc-cor stress (kbar)    778.05      0.00      0.00
                                0.00    778.40      0.00
                                0.00      0.00    768.95

     corecor stress (kbar)  -1036.24     -0.00     -0.00
                               -0.00  -1037.14      0.00
                               -0.00      0.00  -1027.84

     ewald   stress (kbar)   2923.73      0.00     -0.00
                                0.00   2971.85     -0.00
                               -0.00     -0.00  -4757.74

     hubbard stress (kbar)      0.00      0.00      0.00
                                0.00      0.00      0.00
                                0.00      0.00      0.00

     london  stress (kbar)      0.00      0.00      0.00
                                0.00      0.00      0.00
                                0.00      0.00      0.00

     DFT-D3  stress (kbar)      0.00      0.00      0.00
                                0.00      0.00      0.00
                                0.00      0.00      0.00

     XDM     stress (kbar)      0.00      0.00      0.00
                                0.00      0.00      0.00
                                0.00      0.00      0.00

     dft-nl  stress (kbar)      0.00      0.00      0.00
                                0.00      0.00      0.00
                                0.00      0.00      0.00

     TS-vdW  stress (kbar)      0.00      0.00      0.00
                                0.00      0.00      0.00
                                0.00      0.00      0.00



     Writing output data file silicene.save/

     init_run     :      2.09s CPU      2.19s WALL (       1 calls)
     electrons    :     37.10s CPU     38.11s WALL (       1 calls)
     forces       :      0.88s CPU      0.89s WALL (       1 calls)
     stress       :      2.66s CPU      2.74s WALL (       1 calls)

     Called by init_run:
     wfcinit      :      1.01s CPU      1.01s WALL (       1 calls)
     wfcinit:atom :      0.02s CPU      0.02s WALL (      31 calls)
     wfcinit:wfcr :      0.90s CPU      0.90s WALL (      31 calls)
     potinit      :      0.20s CPU      0.20s WALL (       1 calls)
     hinit0       :      0.75s CPU      0.75s WALL (       1 calls)

     Called by electrons:
     c_bands      :     28.38s CPU     28.58s WALL (      10 calls)
     sum_band     :      6.62s CPU      7.30s WALL (      10 calls)
     v_of_rho     :      0.63s CPU      0.63s WALL (      10 calls)
     v_h          :      0.04s CPU      0.04s WALL (      10 calls)
     v_xc         :      0.70s CPU      0.70s WALL (      12 calls)
     newd         :      1.50s CPU      1.72s WALL (      10 calls)
     mix_rho      :      0.09s CPU      0.09s WALL (      10 calls)

     Called by c_bands:
     init_us_2    :      0.89s CPU      0.94s WALL (     713 calls)
     cegterg      :     25.61s CPU     25.76s WALL (     310 calls)

     Called by sum_band:
     sum_band:bec :      0.01s CPU      0.01s WALL (     310 calls)
     addusdens    :      1.58s CPU      2.26s WALL (      10 calls)

     Called by *egterg:
     h_psi        :     21.90s CPU     22.04s WALL (    1176 calls)
     s_psi        :      1.70s CPU      1.71s WALL (    1176 calls)
     g_psi        :      0.11s CPU      0.11s WALL (     835 calls)
     cdiaghg      :      0.14s CPU      0.14s WALL (    1114 calls)
     cegterg:over :      1.05s CPU      1.05s WALL (     835 calls)
     cegterg:upda :      0.70s CPU      0.70s WALL (     835 calls)
     cegterg:last :      0.38s CPU      0.38s WALL (     316 calls)

     Called by h_psi:
     h_psi:pot    :     21.84s CPU     21.98s WALL (    1176 calls)
     h_psi:calbec :      1.89s CPU      1.94s WALL (    1176 calls)
     vloc_psi     :     18.24s CPU     18.32s WALL (    1176 calls)
     add_vuspsi   :      1.70s CPU      1.71s WALL (    1176 calls)

     General routines
     calbec       :      2.94s CPU      2.99s WALL (    1641 calls)
     fft          :      0.44s CPU      0.44s WALL (     154 calls)
     ffts         :      0.05s CPU      0.05s WALL (      20 calls)
     fftw         :     19.92s CPU     19.99s WALL (   15754 calls)
     interpolate  :      0.06s CPU      0.06s WALL (      10 calls)

     Parallel routines

     PWSCF        :     43.40s CPU     44.61s WALL


   This run was terminated on:  21:10: 9  22Sep2023            

=------------------------------------------------------------------------------=
   JOB DONE.
=------------------------------------------------------------------------------=
