### Running on host: LAPTOP-C0A2DPIS

     Program PWSCF v.6.4.1 starts on 22Sep2023 at 21:44:42 

     This program is part of the open-source Quantum ESPRESSO suite
     for quantum simulation of materials; please cite
         "P. Giannozzi et al., J. Phys.:Condens. Matter 21 395502 (2009);
         "P. Giannozzi et al., J. Phys.:Condens. Matter 29 465901 (2017);
          URL http://www.quantum-espresso.org", 
     in publications or presentations arising from this work. More details at
     http://www.quantum-espresso.org/quote

     Parallel version (MPI), running on     1 processors

     MPI processes distributed on     1 nodes
     Reading input from silicene_scf_kpoints-4.in

     Current dimensions of program PWSCF are:
     Max number of different atomic species (ntypx) = 10
     Max number of k-points (npk) =  40000
     Max angular momentum in pseudopotentials (lmaxx) =  3
     Message from routine read_upf::
     Pseudo file Si.pbe-n-rrkjus_psl.1.0.0.UPF has been fixed on the fly.
To avoid this message in the future, permanently fix 
 your pseudo files following these instructions: 
https://gitlab.com/QEF/q-e/blob/master/upftools/how_to_fix_upf.md

     Subspace diagonalization in iterative solution of the eigenvalue problem:
     a serial algorithm will be used

     Message from routine setup:
     DEPRECATED: symmetry with ibrav=0, use correct ibrav instead

     G-vector sticks info
     --------------------
     sticks:   dense  smooth     PW     G-vecs:    dense   smooth      PW
     Sum         859     433    151                64713    22975    4467



     bravais-lattice index     =            0
     lattice parameter (alat)  =       7.2375  a.u.
     unit-cell volume          =    1032.2806 (a.u.)^3
     number of atoms/cell      =            2
     number of atomic types    =            1
     number of electrons       =         8.00
     number of Kohn-Sham states=            8
     kinetic-energy cutoff     =      30.0000  Ry
     charge density cutoff     =     240.0000  Ry
     convergence threshold     =      4.0E-10
     mixing beta               =       0.4000
     number of iterations used =            8  plain     mixing
     Exchange-correlation      = PBE ( 1  4  3  4 0 0)

     celldm(1)=   7.237514  celldm(2)=   0.000000  celldm(3)=   0.000000
     celldm(4)=   0.000000  celldm(5)=   0.000000  celldm(6)=   0.000000

     crystal axes: (cart. coord. in units of alat)
               a(1) = (   0.502620  -0.864507   0.000000 )  
               a(2) = (   0.502620   0.864507   0.000000 )  
               a(3) = (   0.000000   0.000000   3.133218 )  

     reciprocal axes: (cart. coord. in units 2 pi/alat)
               b(1) = (  0.994786 -0.578364  0.000000 )  
               b(2) = (  0.994786  0.578364 -0.000000 )  
               b(3) = ( -0.000000  0.000000  0.319161 )  


     PseudoPot. # 1 for Si read from file:
     /home/meyn/q-e-qe-7.1/pseudo/Si.pbe-n-rrkjus_psl.1.0.0.UPF
     MD5 check sum: 56671f82560c68743c116fe4c72cdc4c
     Pseudo is Ultrasoft + core correction, Zval =  4.0
     Generated using "atomic" code by A. Dal Corso v.5.1.2
     Using radial grid of 1141 points,  6 beta functions with: 
                l(1) =   0
                l(2) =   0
                l(3) =   1
                l(4) =   1
                l(5) =   2
                l(6) =   2
     Q(r) pseudized with 0 coefficients 


     atomic species   valence    mass     pseudopotential
        Si             4.00    28.08550     Si( 1.00)

      4 Sym. Ops. (no inversion) found


                                    s                        frac. trans.

      isym =  1     identity                                     

 cryst.   s( 1) = (     1          0          0      )
                  (     0          1          0      )
                  (     0          0          1      )

 cart.    s( 1) = (  1.0000000  0.0000000  0.0000000 )
                  (  0.0000000  1.0000000  0.0000000 )
                  (  0.0000000  0.0000000  1.0000000 )


      isym =  2     180 deg rotation - cart. axis [0,1,0]        

 cryst.   s( 2) = (     0         -1          0      )
                  (    -1          0          0      )
                  (     0          0         -1      )

 cart.    s( 2) = ( -1.0000000  0.0000000  0.0000000 )
                  (  0.0000000  1.0000000  0.0000000 )
                  (  0.0000000  0.0000000 -1.0000000 )


      isym =  3     inv. 180 deg rotation - cart. axis [0,0,1]   

 cryst.   s( 3) = (     1          0          0      )
                  (     0          1          0      )
                  (     0          0         -1      )

 cart.    s( 3) = (  1.0000000  0.0000000  0.0000000 )
                  (  0.0000000  1.0000000  0.0000000 )
                  (  0.0000000  0.0000000 -1.0000000 )


      isym =  4     inv. 180 deg rotation - cart. axis [1,0,0]   

 cryst.   s( 4) = (     0         -1          0      )
                  (    -1          0          0      )
                  (     0          0          1      )

 cart.    s( 4) = ( -1.0000000  0.0000000  0.0000000 )
                  (  0.0000000  1.0000000  0.0000000 )
                  (  0.0000000  0.0000000  1.0000000 )


   Cartesian axes

     site n.     atom                  positions (alat units)
         1           Si  tau(   1) = (   0.0000000   0.0000000   0.0000000  )
         2           Si  tau(   2) = (   0.5026205   0.2939324   0.0000000  )

   Crystallographic axes

     site n.     atom                  positions (cryst. coord.)
         1           Si  tau(   1) = (  0.0000000  0.0000000  0.0000000  )
         2           Si  tau(   2) = (  0.3300000  0.6700000  0.0000000  )

     number of k points=     7  Marzari-Vanderbilt smearing, width (Ry)=  0.0147
                       cart. coord. in units 2pi/alat
        k(    1) = (   0.0000000   0.0000000   0.0000000), wk =   0.1250000
        k(    2) = (   0.2486966   0.1445910   0.0000000), wk =   0.5000000
        k(    3) = (  -0.4973932  -0.2891821   0.0000000), wk =   0.2500000
        k(    4) = (   0.4973932   0.0000000   0.0000000), wk =   0.2500000
        k(    5) = (  -0.2486966  -0.4337731   0.0000000), wk =   0.5000000
        k(    6) = (   0.0000000  -0.2891821   0.0000000), wk =   0.2500000
        k(    7) = (  -0.9947864   0.0000000   0.0000000), wk =   0.1250000

                       cryst. coord.
        k(    1) = (   0.0000000   0.0000000   0.0000000), wk =   0.1250000
        k(    2) = (   0.0000000   0.2500000   0.0000000), wk =   0.5000000
        k(    3) = (   0.0000000  -0.5000000   0.0000000), wk =   0.2500000
        k(    4) = (   0.2500000   0.2500000   0.0000000), wk =   0.2500000
        k(    5) = (   0.2500000  -0.5000000   0.0000000), wk =   0.5000000
        k(    6) = (   0.2500000  -0.2500000   0.0000000), wk =   0.2500000
        k(    7) = (  -0.5000000  -0.5000000   0.0000000), wk =   0.1250000

     Dense  grid:    64713 G-vectors     FFT dimensions: (  36,  36, 120)

     Smooth grid:    22975 G-vectors     FFT dimensions: (  25,  25,  80)

     Dynamical RAM for                 wfc:       0.35 MB

     Dynamical RAM for     wfc (w. buffer):       2.80 MB

     Dynamical RAM for           str. fact:       0.99 MB

     Dynamical RAM for           local pot:       0.00 MB

     Dynamical RAM for          nlocal pot:       1.57 MB

     Dynamical RAM for                qrad:       1.43 MB

     Dynamical RAM for          rho,v,vnew:       6.52 MB

     Dynamical RAM for               rhoin:       2.17 MB

     Dynamical RAM for            rho*nmix:      15.80 MB

     Dynamical RAM for           G-vectors:       3.88 MB

     Dynamical RAM for          h,s,v(r/c):       0.05 MB

     Dynamical RAM for          <psi|beta>:       0.00 MB

     Dynamical RAM for                 psi:       1.40 MB

     Dynamical RAM for                hpsi:       1.40 MB

     Dynamical RAM for                spsi:       1.40 MB

     Dynamical RAM for      wfcinit/wfcrot:       0.70 MB

     Dynamical RAM for           addusdens:     185.64 MB

     Dynamical RAM for          addusforce:     188.12 MB

     Dynamical RAM for         addusstress:     198.48 MB

     Estimated static dynamical RAM per process >      43.07 MB

     Estimated max dynamical RAM per process >     241.55 MB

     Initial potential from superposition of free atoms

     starting charge    7.99888, renormalised to    8.00000

     negative rho (up, down):  3.014E-06 0.000E+00
     Starting wfcs are    8 randomized atomic wfcs

     total cpu time spent up to now is        1.9 secs

     Self-consistent Calculation

     iteration #  1     ecut=    30.00 Ry     beta= 0.40
     Davidson diagonalization with overlap
     ethr =  1.00E-02,  avg # of iterations =  4.3

     Threshold (ethr) on eigenvalues was too large:
     Diagonalizing with lowered threshold

     Davidson diagonalization with overlap
     ethr =  9.65E-04,  avg # of iterations =  1.7

     negative rho (up, down):  1.886E-06 0.000E+00

     total cpu time spent up to now is        3.1 secs

     total energy              =     -22.73698043 Ry
     Harris-Foulkes estimate   =     -22.75774110 Ry
     estimated scf accuracy    <       0.07601629 Ry

     iteration #  2     ecut=    30.00 Ry     beta= 0.40
     Davidson diagonalization with overlap
     ethr =  9.50E-04,  avg # of iterations =  1.0

     negative rho (up, down):  4.137E-06 0.000E+00

     total cpu time spent up to now is        3.8 secs

     total energy              =     -22.73333763 Ry
     Harris-Foulkes estimate   =     -22.73938918 Ry
     estimated scf accuracy    <       0.01834520 Ry

     iteration #  3     ecut=    30.00 Ry     beta= 0.40
     Davidson diagonalization with overlap
     ethr =  2.29E-04,  avg # of iterations =  3.7

     negative rho (up, down):  3.054E-06 0.000E+00

     total cpu time spent up to now is        4.6 secs

     total energy              =     -22.73530267 Ry
     Harris-Foulkes estimate   =     -22.73551423 Ry
     estimated scf accuracy    <       0.00067962 Ry

     iteration #  4     ecut=    30.00 Ry     beta= 0.40
     Davidson diagonalization with overlap
     ethr =  8.50E-06,  avg # of iterations =  4.7

     negative rho (up, down):  2.370E-06 0.000E+00

     total cpu time spent up to now is        5.4 secs

     total energy              =     -22.73538408 Ry
     Harris-Foulkes estimate   =     -22.73550282 Ry
     estimated scf accuracy    <       0.00019012 Ry

     iteration #  5     ecut=    30.00 Ry     beta= 0.40
     Davidson diagonalization with overlap
     ethr =  2.38E-06,  avg # of iterations =  2.1

     negative rho (up, down):  2.071E-06 0.000E+00

     total cpu time spent up to now is        6.1 secs

     total energy              =     -22.73542244 Ry
     Harris-Foulkes estimate   =     -22.73542429 Ry
     estimated scf accuracy    <       0.00000473 Ry

     iteration #  6     ecut=    30.00 Ry     beta= 0.40
     Davidson diagonalization with overlap
     ethr =  5.92E-08,  avg # of iterations =  2.0

     negative rho (up, down):  1.966E-06 0.000E+00

     total cpu time spent up to now is        6.8 secs

     total energy              =     -22.73542310 Ry
     Harris-Foulkes estimate   =     -22.73542313 Ry
     estimated scf accuracy    <       0.00000029 Ry

     iteration #  7     ecut=    30.00 Ry     beta= 0.40
     Davidson diagonalization with overlap
     ethr =  3.68E-09,  avg # of iterations =  1.9

     negative rho (up, down):  1.924E-06 0.000E+00

     total cpu time spent up to now is        7.5 secs

     total energy              =     -22.73542314 Ry
     Harris-Foulkes estimate   =     -22.73542314 Ry
     estimated scf accuracy    <       0.00000001 Ry

     iteration #  8     ecut=    30.00 Ry     beta= 0.40
     Davidson diagonalization with overlap
     ethr =  1.49E-10,  avg # of iterations =  2.0

     negative rho (up, down):  1.915E-06 0.000E+00

     total cpu time spent up to now is        8.2 secs

     total energy              =     -22.73542314 Ry
     Harris-Foulkes estimate   =     -22.73542314 Ry
     estimated scf accuracy    <          4.1E-09 Ry

     iteration #  9     ecut=    30.00 Ry     beta= 0.40
     Davidson diagonalization with overlap
     ethr =  5.14E-11,  avg # of iterations =  1.7

     negative rho (up, down):  1.916E-06 0.000E+00

     total cpu time spent up to now is        9.0 secs

     total energy              =     -22.73542315 Ry
     Harris-Foulkes estimate   =     -22.73542314 Ry
     estimated scf accuracy    <          5.9E-10 Ry

     iteration # 10     ecut=    30.00 Ry     beta= 0.40
     Davidson diagonalization with overlap
     ethr =  7.38E-12,  avg # of iterations =  2.3

     negative rho (up, down):  1.928E-06 0.000E+00

     total cpu time spent up to now is        9.7 secs

     End of self-consistent calculation

          k = 0.0000 0.0000 0.0000 (  2867 PWs)   bands (ev):

   -13.2037  -4.8552  -3.4636  -3.3246   0.1768   0.8615   1.1211   1.3573

     occupation numbers 
     1.0000   1.0000   1.0000   1.0000   0.0000   0.0000   0.0000   0.0000

          k = 0.2487 0.1446 0.0000 (  2868 PWs)   bands (ev):

   -12.4789  -6.4634  -4.2346  -4.1478  -0.2323   1.7834   2.1741   3.3287

     occupation numbers 
     1.0000   1.0000   1.0000   1.0000   0.0000   0.0000   0.0000   0.0000

          k =-0.4974-0.2892 0.0000 (  2876 PWs)   bands (ev):

   -10.9726  -9.2170  -4.7749  -2.6853  -0.9111  -0.9089   4.2433   4.8303

     occupation numbers 
     1.0000   1.0000   1.0000   0.9569   0.0000   0.0000   0.0000   0.0000

          k = 0.4974 0.0000 0.0000 (  2852 PWs)   bands (ev):

   -11.1489  -8.5306  -6.0962  -2.8508  -0.3203   2.2327   2.9267   3.0680

     occupation numbers 
     1.0000   1.0000   1.0000   1.0730   0.0000   0.0000   0.0000   0.0000

          k =-0.2487-0.4338 0.0000 (  2854 PWs)   bands (ev):

   -11.0954  -8.6357  -6.0380  -2.8039  -0.4007   2.3141   2.7289   3.1150

     occupation numbers 
     1.0000   1.0000   1.0000   1.0833   0.0000   0.0000   0.0000   0.0000

          k = 0.0000-0.2892 0.0000 (  2861 PWs)   bands (ev):

   -12.4618  -6.5147  -4.2031  -4.1326  -0.2279   1.7548   2.1837   3.2272

     occupation numbers 
     1.0000   1.0000   1.0000   1.0000   0.0000   0.0000   0.0000   0.0000

          k =-0.9948 0.0000 0.0000 (  2888 PWs)   bands (ev):

   -10.8431  -9.3708  -4.7720  -2.5779  -1.0289  -0.9335   4.3124   4.8111

     occupation numbers 
     1.0000   1.0000   1.0000   0.6069   0.0000   0.0000   0.0000   0.0000

     the Fermi energy is    -2.5215 ev

!    total energy              =     -22.73542315 Ry
     Harris-Foulkes estimate   =     -22.73542315 Ry
     estimated scf accuracy    <          6.7E-12 Ry

     The total energy is the sum of the following terms:

     one-electron contribution =     -39.50039730 Ry
     hartree contribution      =      20.99800721 Ry
     xc contribution           =     -12.21935127 Ry
     ewald contribution        =       7.98458886 Ry
     smearing contrib. (-TS)   =       0.00172935 Ry

     convergence has been achieved in  10 iterations

     negative rho (up, down):  1.928E-06 0.000E+00

     Forces acting on atoms (cartesian axes, Ry/au):

     atom    1 type  1   force =     0.00000000    0.01938547    0.00000000
     atom    2 type  1   force =     0.00000000   -0.01938547    0.00000000
     The non-local contrib.  to forces
     atom    1 type  1   force =     0.00000000    0.02440542    0.00000000
     atom    2 type  1   force =     0.00000000   -0.02444900    0.00000000
     The ionic contribution  to forces
     atom    1 type  1   force =    -0.00000000    0.06637603   -0.00000000
     atom    2 type  1   force =     0.00000000   -0.06637603   -0.00000000
     The local contribution  to forces
     atom    1 type  1   force =     0.00000000   -0.06855121    0.00000000
     atom    2 type  1   force =     0.00000000    0.06855862    0.00000000
     The core correction contribution to forces
     atom    1 type  1   force =     0.00000000   -0.00285812   -0.00000000
     atom    2 type  1   force =    -0.00000000    0.00286774    0.00000000
     The Hubbard contrib.    to forces
     atom    1 type  1   force =     0.00000000    0.00000000    0.00000000
     atom    2 type  1   force =     0.00000000    0.00000000    0.00000000
     The SCF correction term to forces
     atom    1 type  1   force =    -0.00000000    0.00000009   -0.00000000
     atom    2 type  1   force =    -0.00000000   -0.00000009    0.00000000

     Total force =     0.027415     Total SCF correction =     0.000000


     Computing stress (Cartesian axis) and pressure


     negative rho (up, down):  1.928E-06 0.000E+00
          total   stress  (Ry/bohr**3)                   (kbar)     P=   12.31
   0.00009629   0.00000000  -0.00000000         14.16      0.00     -0.00
   0.00000000   0.00015513  -0.00000000          0.00     22.82     -0.00
  -0.00000000  -0.00000000  -0.00000042         -0.00     -0.00     -0.06

     kinetic stress (kbar)    531.40      0.00      0.00
                                0.00    527.02      0.00
                                0.00      0.00    656.04

     local   stress (kbar)  -6543.03     -0.00     -0.00
                               -0.00  -6591.47     -0.00
                               -0.00     -0.00   6826.27

     nonloc. stress (kbar)    446.75      0.00     -0.00
                                0.00    453.76      0.00
                                0.00      0.00    376.35

     hartree stress (kbar)   2913.79      0.00     -0.00
                                0.00   2920.68     -0.00
                               -0.00     -0.00  -2842.15

     exc-cor stress (kbar)    777.82      0.00      0.00
                                0.00    778.19      0.00
                                0.00      0.00    768.72

     corecor stress (kbar)  -1036.30     -0.00     -0.00
                               -0.00  -1037.21     -0.00
                               -0.00     -0.00  -1027.55

     ewald   stress (kbar)   2923.73      0.00     -0.00
                                0.00   2971.85     -0.00
                               -0.00     -0.00  -4757.74

     hubbard stress (kbar)      0.00      0.00      0.00
                                0.00      0.00      0.00
                                0.00      0.00      0.00

     london  stress (kbar)      0.00      0.00      0.00
                                0.00      0.00      0.00
                                0.00      0.00      0.00

     DFT-D3  stress (kbar)      0.00      0.00      0.00
                                0.00      0.00      0.00
                                0.00      0.00      0.00

     XDM     stress (kbar)      0.00      0.00      0.00
                                0.00      0.00      0.00
                                0.00      0.00      0.00

     dft-nl  stress (kbar)      0.00      0.00      0.00
                                0.00      0.00      0.00
                                0.00      0.00      0.00

     TS-vdW  stress (kbar)      0.00      0.00      0.00
                                0.00      0.00      0.00
                                0.00      0.00      0.00



     Writing output data file silicene.save/

     init_run     :      1.20s CPU      1.27s WALL (       1 calls)
     electrons    :      7.39s CPU      7.82s WALL (       1 calls)
     forces       :      0.59s CPU      0.63s WALL (       1 calls)
     stress       :      1.87s CPU      1.95s WALL (       1 calls)

     Called by init_run:
     wfcinit      :      0.12s CPU      0.13s WALL (       1 calls)
     wfcinit:atom :      0.00s CPU      0.00s WALL (       7 calls)
     wfcinit:wfcr :      0.10s CPU      0.10s WALL (       7 calls)
     potinit      :      0.24s CPU      0.25s WALL (       1 calls)
     hinit0       :      0.62s CPU      0.62s WALL (       1 calls)

     Called by electrons:
     c_bands      :      2.69s CPU      2.71s WALL (      11 calls)
     sum_band     :      2.36s CPU      2.54s WALL (      11 calls)
     v_of_rho     :      0.68s CPU      0.71s WALL (      11 calls)
     v_h          :      0.04s CPU      0.04s WALL (      11 calls)
     v_xc         :      0.76s CPU      0.79s WALL (      13 calls)
     newd         :      1.75s CPU      2.00s WALL (      11 calls)
     mix_rho      :      0.11s CPU      0.13s WALL (      11 calls)

     Called by c_bands:
     init_us_2    :      0.13s CPU      0.14s WALL (     175 calls)
     cegterg      :      2.24s CPU      2.26s WALL (      77 calls)

     Called by sum_band:
     sum_band:bec :      0.00s CPU      0.00s WALL (      77 calls)
     addusdens    :      1.88s CPU      2.05s WALL (      11 calls)

     Called by *egterg:
     h_psi        :      1.66s CPU      1.68s WALL (     276 calls)
     s_psi        :      0.25s CPU      0.25s WALL (     276 calls)
     g_psi        :      0.02s CPU      0.02s WALL (     192 calls)
     cdiaghg      :      0.03s CPU      0.03s WALL (     262 calls)
     cegterg:over :      0.15s CPU      0.15s WALL (     192 calls)
     cegterg:upda :      0.10s CPU      0.10s WALL (     192 calls)
     cegterg:last :      0.05s CPU      0.05s WALL (      77 calls)

     Called by h_psi:
     h_psi:pot    :      1.65s CPU      1.67s WALL (     276 calls)
     h_psi:calbec :      0.28s CPU      0.29s WALL (     276 calls)
     vloc_psi     :      1.11s CPU      1.12s WALL (     276 calls)
     add_vuspsi   :      0.26s CPU      0.26s WALL (     276 calls)

     General routines
     calbec       :      0.42s CPU      0.43s WALL (     388 calls)
     fft          :      0.49s CPU      0.51s WALL (     167 calls)
     ffts         :      0.01s CPU      0.01s WALL (      22 calls)
     fftw         :      1.06s CPU      1.08s WALL (    3804 calls)
     interpolate  :      0.04s CPU      0.04s WALL (      11 calls)

     Parallel routines

     PWSCF        :     11.67s CPU     12.29s WALL


   This run was terminated on:  21:44:54  22Sep2023            

=------------------------------------------------------------------------------=
   JOB DONE.
=------------------------------------------------------------------------------=
