
     Program PWSCF v.6.4.1 starts on 23Sep2023 at  0:50: 9 

     This program is part of the open-source Quantum ESPRESSO suite
     for quantum simulation of materials; please cite
         "P. Giannozzi et al., J. Phys.:Condens. Matter 21 395502 (2009);
         "P. Giannozzi et al., J. Phys.:Condens. Matter 29 465901 (2017);
          URL http://www.quantum-espresso.org", 
     in publications or presentations arising from this work. More details at
     http://www.quantum-espresso.org/quote

     Parallel version (MPI), running on     1 processors

     MPI processes distributed on     1 nodes
     Waiting for input...
     Reading input from standard input

     Current dimensions of program PWSCF are:
     Max number of different atomic species (ntypx) = 10
     Max number of k-points (npk) =  40000
     Max angular momentum in pseudopotentials (lmaxx) =  3
     Message from routine read_upf::
     Pseudo file Si.pbe-n-rrkjus_psl.1.0.0.UPF has been fixed on the fly.
To avoid this message in the future, permanently fix 
 your pseudo files following these instructions: 
https://gitlab.com/QEF/q-e/blob/master/upftools/how_to_fix_upf.md

     Subspace diagonalization in iterative solution of the eigenvalue problem:
     a serial algorithm will be used

     Message from routine setup:
     DEPRECATED: symmetry with ibrav=0, use correct ibrav instead

     G-vector sticks info
     --------------------
     sticks:   dense  smooth     PW     G-vecs:    dense   smooth      PW
     Sum         913     745    241                67107    51091    8985



     bravais-lattice index     =            0
     lattice parameter (alat)  =       7.3738  a.u.
     unit-cell volume          =    1067.7252 (a.u.)^3
     number of atoms/cell      =            2
     number of atomic types    =            1
     number of electrons       =         8.00
     number of Kohn-Sham states=            8
     kinetic-energy cutoff     =      50.0000  Ry
     charge density cutoff     =     240.0000  Ry
     convergence threshold     =      4.0E-10
     mixing beta               =       0.4000
     number of iterations used =            8  plain     mixing
     Exchange-correlation      = PBE ( 1  4  3  4 0 0)

     celldm(1)=   7.373770  celldm(2)=   0.000000  celldm(3)=   0.000000
     celldm(4)=   0.000000  celldm(5)=   0.000000  celldm(6)=   0.000000

     crystal axes: (cart. coord. in units of alat)
               a(1) = (   0.499990  -0.866031  -0.000000 )  
               a(2) = (   0.499990   0.866031   0.000000 )  
               a(3) = (  -0.000000   0.000000   3.075148 )  

     reciprocal axes: (cart. coord. in units 2 pi/alat)
               b(1) = (  1.000020 -0.577346  0.000000 )  
               b(2) = (  1.000020  0.577346  0.000000 )  
               b(3) = (  0.000000 -0.000000  0.325188 )  


     PseudoPot. # 1 for Si read from file:
     /home/meyn/q-e-qe-7.1/pseudo/Si.pbe-n-rrkjus_psl.1.0.0.UPF
     MD5 check sum: 56671f82560c68743c116fe4c72cdc4c
     Pseudo is Ultrasoft + core correction, Zval =  4.0
     Generated using "atomic" code by A. Dal Corso v.5.1.2
     Using radial grid of 1141 points,  6 beta functions with: 
                l(1) =   0
                l(2) =   0
                l(3) =   1
                l(4) =   1
                l(5) =   2
                l(6) =   2
     Q(r) pseudized with 0 coefficients 


     atomic species   valence    mass     pseudopotential
        Si             4.00    28.08550     Si( 1.00)

      4 Sym. Ops. (no inversion) found


                                    s                        frac. trans.

      isym =  1     identity                                     

 cryst.   s( 1) = (     1          0          0      )
                  (     0          1          0      )
                  (     0          0          1      )

 cart.    s( 1) = (  1.0000000  0.0000000  0.0000000 )
                  (  0.0000000  1.0000000  0.0000000 )
                  (  0.0000000  0.0000000  1.0000000 )


      isym =  2     180 deg rotation - cart. axis [0,1,0]        

 cryst.   s( 2) = (     0         -1          0      )
                  (    -1          0          0      )
                  (     0          0         -1      )

 cart.    s( 2) = ( -1.0000000  0.0000000  0.0000000 )
                  (  0.0000000  1.0000000  0.0000000 )
                  (  0.0000000  0.0000000 -1.0000000 )


      isym =  3     inv. 180 deg rotation - cart. axis [0,0,1]   

 cryst.   s( 3) = (     1          0          0      )
                  (     0          1          0      )
                  (     0          0         -1      )

 cart.    s( 3) = (  1.0000000  0.0000000  0.0000000 )
                  (  0.0000000  1.0000000  0.0000000 )
                  (  0.0000000  0.0000000 -1.0000000 )


      isym =  4     inv. 180 deg rotation - cart. axis [1,0,0]   

 cryst.   s( 4) = (     0         -1          0      )
                  (    -1          0          0      )
                  (     0          0          1      )

 cart.    s( 4) = ( -1.0000000  0.0000000  0.0000000 )
                  (  0.0000000  1.0000000  0.0000000 )
                  (  0.0000000  0.0000000  1.0000000 )


   Cartesian axes

     site n.     atom                  positions (alat units)
         1           Si  tau(   1) = (   0.4999898  -0.8631569   0.0000000  )
         2           Si  tau(   2) = (   0.4999898   0.2915762   0.0000000  )

   Crystallographic axes

     site n.     atom                  positions (cryst. coord.)
         1           Si  tau(   1) = (  0.9983405  0.0016595  0.0000000  )
         2           Si  tau(   2) = (  0.3316595  0.6683405  0.0000000  )

     number of k points=    31  Marzari-Vanderbilt smearing, width (Ry)=  0.0147
                       cart. coord. in units 2pi/alat
        k(    1) = (   0.0000000   0.0000000   0.0000000), wk =   0.0200000
        k(    2) = (   0.1000020   0.0577346   0.0000000), wk =   0.0800000
        k(    3) = (   0.2000041   0.1154693   0.0000000), wk =   0.0800000
        k(    4) = (   0.3000061   0.1732039   0.0000000), wk =   0.0800000
        k(    5) = (   0.4000081   0.2309385   0.0000000), wk =   0.0800000
        k(    6) = (  -0.5000102  -0.2886732   0.0000000), wk =   0.0400000
        k(    7) = (   0.2000041   0.0000000   0.0000000), wk =   0.0400000
        k(    8) = (   0.3000061   0.0577346   0.0000000), wk =   0.0800000
        k(    9) = (   0.4000081   0.1154693   0.0000000), wk =   0.0800000
        k(   10) = (   0.5000102   0.1732039   0.0000000), wk =   0.0800000
        k(   11) = (  -0.4000081  -0.3464078   0.0000000), wk =   0.0800000
        k(   12) = (  -0.3000061  -0.2886732   0.0000000), wk =   0.0800000
        k(   13) = (  -0.2000041  -0.2309385   0.0000000), wk =   0.0800000
        k(   14) = (  -0.1000020  -0.1732039   0.0000000), wk =   0.0800000
        k(   15) = (   0.0000000  -0.1154693   0.0000000), wk =   0.0400000
        k(   16) = (   0.4000081   0.0000000   0.0000000), wk =   0.0400000
        k(   17) = (   0.5000102   0.0577346   0.0000000), wk =   0.0800000
        k(   18) = (   0.6000122   0.1154693   0.0000000), wk =   0.0800000
        k(   19) = (  -0.3000061  -0.4041424   0.0000000), wk =   0.0800000
        k(   20) = (  -0.2000041  -0.3464078   0.0000000), wk =   0.0800000
        k(   21) = (  -0.1000020  -0.2886732   0.0000000), wk =   0.0800000
        k(   22) = (   0.0000000  -0.2309385   0.0000000), wk =   0.0400000
        k(   23) = (   0.6000122   0.0000000   0.0000000), wk =   0.0400000
        k(   24) = (   0.7000142   0.0577346   0.0000000), wk =   0.0800000
        k(   25) = (  -0.2000041  -0.4618771   0.0000000), wk =   0.0800000
        k(   26) = (  -0.1000020  -0.4041424   0.0000000), wk =   0.0800000
        k(   27) = (  -0.0000000  -0.3464078   0.0000000), wk =   0.0400000
        k(   28) = (   0.8000163   0.0000000   0.0000000), wk =   0.0400000
        k(   29) = (  -0.1000020  -0.5196117   0.0000000), wk =   0.0800000
        k(   30) = (   0.0000000  -0.4618771   0.0000000), wk =   0.0400000
        k(   31) = (  -1.0000203   0.0000000   0.0000000), wk =   0.0200000

                       cryst. coord.
        k(    1) = (   0.0000000   0.0000000   0.0000000), wk =   0.0200000
        k(    2) = (  -0.0000000   0.1000000   0.0000000), wk =   0.0800000
        k(    3) = (  -0.0000000   0.2000000   0.0000000), wk =   0.0800000
        k(    4) = (  -0.0000000   0.3000000   0.0000000), wk =   0.0800000
        k(    5) = (  -0.0000000   0.4000000   0.0000000), wk =   0.0800000
        k(    6) = (   0.0000000  -0.5000000   0.0000000), wk =   0.0400000
        k(    7) = (   0.1000000   0.1000000   0.0000000), wk =   0.0400000
        k(    8) = (   0.1000000   0.2000000   0.0000000), wk =   0.0800000
        k(    9) = (   0.1000000   0.3000000   0.0000000), wk =   0.0800000
        k(   10) = (   0.1000000   0.4000000   0.0000000), wk =   0.0800000
        k(   11) = (   0.1000000  -0.5000000   0.0000000), wk =   0.0800000
        k(   12) = (   0.1000000  -0.4000000   0.0000000), wk =   0.0800000
        k(   13) = (   0.1000000  -0.3000000   0.0000000), wk =   0.0800000
        k(   14) = (   0.1000000  -0.2000000   0.0000000), wk =   0.0800000
        k(   15) = (   0.1000000  -0.1000000   0.0000000), wk =   0.0400000
        k(   16) = (   0.2000000   0.2000000   0.0000000), wk =   0.0400000
        k(   17) = (   0.2000000   0.3000000   0.0000000), wk =   0.0800000
        k(   18) = (   0.2000000   0.4000000   0.0000000), wk =   0.0800000
        k(   19) = (   0.2000000  -0.5000000   0.0000000), wk =   0.0800000
        k(   20) = (   0.2000000  -0.4000000   0.0000000), wk =   0.0800000
        k(   21) = (   0.2000000  -0.3000000   0.0000000), wk =   0.0800000
        k(   22) = (   0.2000000  -0.2000000   0.0000000), wk =   0.0400000
        k(   23) = (   0.3000000   0.3000000   0.0000000), wk =   0.0400000
        k(   24) = (   0.3000000   0.4000000   0.0000000), wk =   0.0800000
        k(   25) = (   0.3000000  -0.5000000   0.0000000), wk =   0.0800000
        k(   26) = (   0.3000000  -0.4000000   0.0000000), wk =   0.0800000
        k(   27) = (   0.3000000  -0.3000000   0.0000000), wk =   0.0400000
        k(   28) = (   0.4000000   0.4000000   0.0000000), wk =   0.0400000
        k(   29) = (   0.4000000  -0.5000000   0.0000000), wk =   0.0800000
        k(   30) = (   0.4000000  -0.4000000   0.0000000), wk =   0.0400000
        k(   31) = (  -0.5000000  -0.5000000   0.0000000), wk =   0.0200000

     Dense  grid:    67107 G-vectors     FFT dimensions: (  40,  40, 120)

     Smooth grid:    51091 G-vectors     FFT dimensions: (  36,  36, 108)

     Dynamical RAM for                 wfc:       0.78 MB

     Dynamical RAM for     wfc (w. buffer):      24.90 MB

     Dynamical RAM for           str. fact:       1.02 MB

     Dynamical RAM for           local pot:       0.00 MB

     Dynamical RAM for          nlocal pot:       3.50 MB

     Dynamical RAM for                qrad:       1.46 MB

     Dynamical RAM for          rho,v,vnew:       7.47 MB

     Dynamical RAM for               rhoin:       2.49 MB

     Dynamical RAM for            rho*nmix:      16.38 MB

     Dynamical RAM for           G-vectors:       4.23 MB

     Dynamical RAM for          h,s,v(r/c):       0.05 MB

     Dynamical RAM for          <psi|beta>:       0.00 MB

     Dynamical RAM for                 psi:       3.11 MB

     Dynamical RAM for                hpsi:       3.11 MB

     Dynamical RAM for                spsi:       3.11 MB

     Dynamical RAM for      wfcinit/wfcrot:       1.56 MB

     Dynamical RAM for           addusdens:     192.51 MB

     Dynamical RAM for          addusforce:     195.07 MB

     Dynamical RAM for         addusstress:     205.82 MB

     Estimated static dynamical RAM per process >      70.83 MB

     Estimated max dynamical RAM per process >     276.65 MB

     Initial potential from superposition of free atoms

     starting charge    7.99888, renormalised to    8.00000

     negative rho (up, down):  2.826E-06 0.000E+00
     Starting wfcs are    8 randomized atomic wfcs

     total cpu time spent up to now is        4.4 secs

     Self-consistent Calculation

     iteration #  1     ecut=    50.00 Ry     beta= 0.40
     Davidson diagonalization with overlap
     ethr =  1.00E-02,  avg # of iterations =  4.3

     Threshold (ethr) on eigenvalues was too large:
     Diagonalizing with lowered threshold

     Davidson diagonalization with overlap
     ethr =  8.07E-04,  avg # of iterations =  1.8

     negative rho (up, down):  1.895E-06 0.000E+00

     total cpu time spent up to now is       17.3 secs

     total energy              =     -22.74441454 Ry
     Harris-Foulkes estimate   =     -22.76058653 Ry
     estimated scf accuracy    <       0.06352613 Ry

     iteration #  2     ecut=    50.00 Ry     beta= 0.40
     Davidson diagonalization with overlap
     ethr =  7.94E-04,  avg # of iterations =  1.1

     negative rho (up, down):  2.003E-06 0.000E+00

     total cpu time spent up to now is       21.6 secs

     total energy              =     -22.74132732 Ry
     Harris-Foulkes estimate   =     -22.74624411 Ry
     estimated scf accuracy    <       0.01581804 Ry

     iteration #  3     ecut=    50.00 Ry     beta= 0.40
     Davidson diagonalization with overlap
     ethr =  1.98E-04,  avg # of iterations =  4.1

     negative rho (up, down):  1.526E-06 0.000E+00

     total cpu time spent up to now is       26.9 secs

     total energy              =     -22.74288034 Ry
     Harris-Foulkes estimate   =     -22.74307286 Ry
     estimated scf accuracy    <       0.00056907 Ry

     iteration #  4     ecut=    50.00 Ry     beta= 0.40
     Davidson diagonalization with overlap
     ethr =  7.11E-06,  avg # of iterations =  5.2

     negative rho (up, down):  1.763E-06 0.000E+00

     total cpu time spent up to now is       33.4 secs

     total energy              =     -22.74295885 Ry
     Harris-Foulkes estimate   =     -22.74305956 Ry
     estimated scf accuracy    <       0.00016483 Ry

     iteration #  5     ecut=    50.00 Ry     beta= 0.40
     Davidson diagonalization with overlap
     ethr =  2.06E-06,  avg # of iterations =  2.6

     negative rho (up, down):  1.926E-06 0.000E+00

     total cpu time spent up to now is       39.0 secs

     total energy              =     -22.74299043 Ry
     Harris-Foulkes estimate   =     -22.74299138 Ry
     estimated scf accuracy    <       0.00000284 Ry

     iteration #  6     ecut=    50.00 Ry     beta= 0.40
     Davidson diagonalization with overlap
     ethr =  3.55E-08,  avg # of iterations =  2.3

     negative rho (up, down):  1.979E-06 0.000E+00

     total cpu time spent up to now is       43.9 secs

     total energy              =     -22.74299107 Ry
     Harris-Foulkes estimate   =     -22.74299105 Ry
     estimated scf accuracy    <       0.00000006 Ry

     iteration #  7     ecut=    50.00 Ry     beta= 0.40
     Davidson diagonalization with overlap
     ethr =  7.81E-10,  avg # of iterations =  2.0

     negative rho (up, down):  2.001E-06 0.000E+00

     total cpu time spent up to now is       49.4 secs

     total energy              =     -22.74299108 Ry
     Harris-Foulkes estimate   =     -22.74299108 Ry
     estimated scf accuracy    <       0.00000001 Ry

     iteration #  8     ecut=    50.00 Ry     beta= 0.40
     Davidson diagonalization with overlap
     ethr =  1.60E-10,  avg # of iterations =  2.0

     negative rho (up, down):  2.018E-06 0.000E+00

     total cpu time spent up to now is       55.9 secs

     total energy              =     -22.74299108 Ry
     Harris-Foulkes estimate   =     -22.74299108 Ry
     estimated scf accuracy    <          1.4E-09 Ry

     iteration #  9     ecut=    50.00 Ry     beta= 0.40
     Davidson diagonalization with overlap
     ethr =  1.80E-11,  avg # of iterations =  2.3

     negative rho (up, down):  2.049E-06 0.000E+00

     total cpu time spent up to now is       62.6 secs

     End of self-consistent calculation

          k = 0.0000 0.0000 0.0000 (  6393 PWs)   bands (ev):

   -13.1131  -4.8189  -3.5566  -3.5557  -0.4362   0.8105   0.8110   1.3214

     occupation numbers 
     1.0000   1.0000   1.0000   1.0000   0.0000   0.0000   0.0000   0.0000

          k = 0.1000 0.0577 0.0000 (  6397 PWs)   bands (ev):

   -12.9991  -4.7077  -4.3837  -3.7433   0.0511   0.9716   1.2270   1.4489

     occupation numbers 
     1.0000   1.0000   1.0000   1.0000   0.0000   0.0000   0.0000   0.0000

          k = 0.2000 0.1155 0.0000 (  6370 PWs)   bands (ev):

   -12.6609  -5.8573  -4.3779  -4.1402  -0.2218   1.8298   2.2621   2.3101

     occupation numbers 
     1.0000   1.0000   1.0000   1.0000   0.0000   0.0000   0.0000   0.0000

          k = 0.3000 0.1732 0.0000 (  6368 PWs)   bands (ev):

   -12.1144  -7.3322  -4.5223  -3.8451  -0.6832   0.8455   2.4581   3.8320

     occupation numbers 
     1.0000   1.0000   1.0000   1.0000   0.0000   0.0000   0.0000   0.0000

          k = 0.4000 0.2309 0.0000 (  6384 PWs)   bands (ev):

   -11.4198  -8.6113  -4.7792  -3.1699  -1.0034  -0.3929   3.3113   4.9331

     occupation numbers 
     1.0000   1.0000   1.0000   1.0000   0.0000   0.0000   0.0000   0.0000

          k =-0.5000-0.2887 0.0000 (  6370 PWs)   bands (ev):

   -10.9458  -9.2838  -4.8684  -2.7143  -1.1151  -1.0410   4.1204   4.6624

     occupation numbers 
     1.0000   1.0000   1.0000   1.0001   0.0000   0.0000   0.0000   0.0000

          k = 0.2000 0.0000 0.0000 (  6385 PWs)   bands (ev):

   -12.7728  -5.3968  -4.4871  -4.1462   0.5762   0.7728   1.7031   2.5398

     occupation numbers 
     1.0000   1.0000   1.0000   1.0000   0.0000   0.0000   0.0000   0.0000

          k = 0.3000 0.0577 0.0000 (  6362 PWs)   bands (ev):

   -12.3287  -6.7243  -4.6904  -4.0540   0.2150   1.4047   1.9428   2.2082

     occupation numbers 
     1.0000   1.0000   1.0000   1.0000   0.0000   0.0000   0.0000   0.0000

          k = 0.4000 0.1155 0.0000 (  6368 PWs)   bands (ev):

   -11.6952  -8.0437  -5.1013  -3.4371  -0.1680   0.1392   2.9506   3.5671

     occupation numbers 
     1.0000   1.0000   1.0000   1.0000   0.0000   0.0000   0.0000   0.0000

          k = 0.5000 0.1732 0.0000 (  6385 PWs)   bands (ev):

   -11.0087  -9.0948  -5.3141  -2.7733  -0.8716  -0.3745   3.8686   3.9737

     occupation numbers 
     1.0000   1.0000   1.0000   1.0000   0.0000   0.0000   0.0000   0.0000

          k =-0.4000-0.3464 0.0000 (  6385 PWs)   bands (ev):

   -11.0087  -9.0948  -5.3141  -2.7733  -0.8717  -0.3745   3.8686   3.9737

     occupation numbers 
     1.0000   1.0000   1.0000   1.0000   0.0000   0.0000   0.0000   0.0000

          k =-0.3000-0.2887 0.0000 (  6368 PWs)   bands (ev):

   -11.6952  -8.0438  -5.1012  -3.4371  -0.1679   0.1391   2.9505   3.5680

     occupation numbers 
     1.0000   1.0000   1.0000   1.0000   0.0000   0.0000   0.0000   0.0000

          k =-0.2000-0.2309 0.0000 (  6362 PWs)   bands (ev):

   -12.3287  -6.7245  -4.6902  -4.0540   0.2151   1.4046   1.9435   2.2081

     occupation numbers 
     1.0000   1.0000   1.0000   1.0000   0.0000   0.0000   0.0000   0.0000

          k =-0.1000-0.1732 0.0000 (  6385 PWs)   bands (ev):

   -12.7728  -5.3972  -4.4871  -4.1457   0.5763   0.7733   1.7031   2.5390

     occupation numbers 
     1.0000   1.0000   1.0000   1.0000   0.0000   0.0000   0.0000   0.0000

          k = 0.0000-0.1155 0.0000 (  6397 PWs)   bands (ev):

   -12.9991  -4.7077  -4.3842  -3.7427   0.0514   0.9715   1.2267   1.4489

     occupation numbers 
     1.0000   1.0000   1.0000   1.0000   0.0000   0.0000   0.0000   0.0000

          k = 0.4000 0.0000 0.0000 (  6364 PWs)   bands (ev):

   -11.7908  -7.7239  -5.4503  -3.5301   0.4158   1.4159   1.6606   2.8295

     occupation numbers 
     1.0000   1.0000   1.0000   1.0000   0.0000   0.0000   0.0000   0.0000

          k = 0.5000 0.0577 0.0000 (  6379 PWs)   bands (ev):

   -11.0953  -8.7554  -5.9536  -2.8552  -0.5790   1.2490   3.1310   3.2411

     occupation numbers 
     1.0000   1.0000   1.0000   1.0000   0.0000   0.0000   0.0000   0.0000

          k = 0.6000 0.1155 0.0000 (  6366 PWs)   bands (ev):

   -10.5800  -9.3965  -6.1196  -2.3606  -1.1902   1.1558   2.9278   4.2829

     occupation numbers 
     1.0000   1.0000   1.0000   1.0630   0.0000   0.0000   0.0000   0.0000

          k =-0.3000-0.4041 0.0000 (  6379 PWs)   bands (ev):

   -11.0953  -8.7555  -5.9535  -2.8552  -0.5792   1.2491   3.1311   3.2419

     occupation numbers 
     1.0000   1.0000   1.0000   1.0000   0.0000   0.0000   0.0000   0.0000

          k =-0.2000-0.3464 0.0000 (  6364 PWs)   bands (ev):

   -11.7908  -7.7242  -5.4500  -3.5301   0.4156   1.4166   1.6607   2.8293

     occupation numbers 
     1.0000   1.0000   1.0000   1.0000   0.0000   0.0000   0.0000   0.0000

          k =-0.1000-0.2887 0.0000 (  6362 PWs)   bands (ev):

   -12.3287  -6.7247  -4.6899  -4.0540   0.2157   1.4044   1.9429   2.2081

     occupation numbers 
     1.0000   1.0000   1.0000   1.0000   0.0000   0.0000   0.0000   0.0000

          k = 0.0000-0.2309 0.0000 (  6370 PWs)   bands (ev):

   -12.6609  -5.8577  -4.3779  -4.1396  -0.2212   1.8298   2.2618   2.3098

     occupation numbers 
     1.0000   1.0000   1.0000   1.0000   0.0000   0.0000   0.0000   0.0000

          k = 0.6000 0.0000 0.0000 (  6380 PWs)   bands (ev):

   -10.3784  -9.4930  -6.4848  -2.1633  -1.3065   2.5185   2.8828   3.2050

     occupation numbers 
     1.0000   1.0000   1.0000   0.9371   0.0000   0.0000   0.0000   0.0000

          k = 0.7000 0.0577 0.0000 (  6380 PWs)   bands (ev):

   -10.3783  -9.4932  -6.4847  -2.1632  -1.3066   2.5186   2.8836   3.2050

     occupation numbers 
     1.0000   1.0000   1.0000   0.9369   0.0000   0.0000   0.0000   0.0000

          k =-0.2000-0.4619 0.0000 (  6379 PWs)   bands (ev):

   -11.0953  -8.7557  -5.9533  -2.8552  -0.5793   1.2498   3.1313   3.2412

     occupation numbers 
     1.0000   1.0000   1.0000   1.0000   0.0000   0.0000   0.0000   0.0000

          k =-0.1000-0.4041 0.0000 (  6368 PWs)   bands (ev):

   -11.6952  -8.0442  -5.1008  -3.4371  -0.1673   0.1389   2.9505   3.5672

     occupation numbers 
     1.0000   1.0000   1.0000   1.0000   0.0000   0.0000   0.0000   0.0000

          k =-0.0000-0.3464 0.0000 (  6368 PWs)   bands (ev):

   -12.1144  -7.3326  -4.5218  -3.8451  -0.6826   0.8451   2.4580   3.8317

     occupation numbers 
     1.0000   1.0000   1.0000   1.0000   0.0000   0.0000   0.0000   0.0000

          k = 0.8000 0.0000 0.0000 (  6366 PWs)   bands (ev):

   -10.5798  -9.3970  -6.1193  -2.3605  -1.1905   1.1566   2.9280   4.2829

     occupation numbers 
     1.0000   1.0000   1.0000   1.0630   0.0000   0.0000   0.0000   0.0000

          k =-0.1000-0.5196 0.0000 (  6385 PWs)   bands (ev):

   -11.0086  -9.0953  -5.3136  -2.7732  -0.8721  -0.3739   3.8685   3.9740

     occupation numbers 
     1.0000   1.0000   1.0000   1.0000   0.0000   0.0000   0.0000   0.0000

          k = 0.0000-0.4619 0.0000 (  6384 PWs)   bands (ev):

   -11.4197  -8.6118  -4.7787  -3.1699  -1.0027  -0.3933   3.3112   4.9330

     occupation numbers 
     1.0000   1.0000   1.0000   1.0000   0.0000   0.0000   0.0000   0.0000

          k =-1.0000 0.0000 0.0000 (  6370 PWs)   bands (ev):

   -10.9456  -9.2844  -4.8679  -2.7142  -1.1145  -1.0414   4.1204   4.6622

     occupation numbers 
     1.0000   1.0000   1.0000   1.0001   0.0000   0.0000   0.0000   0.0000

     the Fermi energy is    -2.0076 ev

!    total energy              =     -22.74299108 Ry
     Harris-Foulkes estimate   =     -22.74299108 Ry
     estimated scf accuracy    <          6.8E-12 Ry

     The total energy is the sum of the following terms:

     one-electron contribution =     -38.15368773 Ry
     hartree contribution      =      20.27402414 Ry
     xc contribution           =     -12.16020346 Ry
     ewald contribution        =       7.29658248 Ry
     smearing contrib. (-TS)   =       0.00029349 Ry

     convergence has been achieved in   9 iterations

     negative rho (up, down):  2.049E-06 0.000E+00

     Forces acting on atoms (cartesian axes, Ry/au):

     atom    1 type  1   force =     0.00000000    0.00005866    0.00000000
     atom    2 type  1   force =     0.00000000   -0.00005866    0.00000000
     The non-local contrib.  to forces
     atom    1 type  1   force =     0.00000000    0.00003088    0.00000000
     atom    2 type  1   force =     0.00000000   -0.00003570    0.00000000
     The ionic contribution  to forces
     atom    1 type  1   force =    -0.00000000    0.00007594   -0.00000000
     atom    2 type  1   force =     0.00000000   -0.00007594   -0.00000000
     The local contribution  to forces
     atom    1 type  1   force =     0.00000000   -0.00004414    0.00000000
     atom    2 type  1   force =     0.00000000    0.00004886    0.00000000
     The core correction contribution to forces
     atom    1 type  1   force =     0.00000000   -0.00001270    0.00000000
     atom    2 type  1   force =    -0.00000000   -0.00000593    0.00000000
     The Hubbard contrib.    to forces
     atom    1 type  1   force =     0.00000000    0.00000000    0.00000000
     atom    2 type  1   force =     0.00000000    0.00000000    0.00000000
     The SCF correction term to forces
     atom    1 type  1   force =    -0.00000000   -0.00000067    0.00000000
     atom    2 type  1   force =     0.00000000    0.00000070    0.00000000

     Total force =     0.000083     Total SCF correction =     0.000001


     Computing stress (Cartesian axis) and pressure


     negative rho (up, down):  2.049E-06 0.000E+00
          total   stress  (Ry/bohr**3)                   (kbar)     P=    0.01
   0.00000007   0.00000000   0.00000000          0.01      0.00      0.00
   0.00000000   0.00000013   0.00000000          0.00      0.02      0.00
   0.00000000   0.00000000  -0.00000007          0.00      0.00     -0.01

     kinetic stress (kbar)    497.44     -0.00      0.00
                                0.00    497.41      0.00
                                0.00      0.00    627.79

     local   stress (kbar)  -6123.66     -0.00     -0.00
                               -0.00  -6123.81      0.00
                               -0.00      0.00   6345.94

     nonloc. stress (kbar)    428.73      0.00      0.00
                                0.00    428.76      0.00
                                0.00      0.00    365.40

     hartree stress (kbar)   2718.80      0.00      0.00
                                0.00   2718.81     -0.00
                                0.00     -0.00  -2644.37

     exc-cor stress (kbar)    753.94      0.00      0.00
                                0.00    753.94      0.00
                                0.00      0.00    745.29

     corecor stress (kbar)  -1001.11     -0.00      0.00
                               -0.00  -1001.11     -0.00
                                0.00      0.00   -993.46

     ewald   stress (kbar)   2725.87      0.00     -0.00
                                0.00   2726.02     -0.00
                               -0.00     -0.00  -4446.60

     hubbard stress (kbar)      0.00      0.00      0.00
                                0.00      0.00      0.00
                                0.00      0.00      0.00

     london  stress (kbar)      0.00      0.00      0.00
                                0.00      0.00      0.00
                                0.00      0.00      0.00

     DFT-D3  stress (kbar)      0.00      0.00      0.00
                                0.00      0.00      0.00
                                0.00      0.00      0.00

     XDM     stress (kbar)      0.00      0.00      0.00
                                0.00      0.00      0.00
                                0.00      0.00      0.00

     dft-nl  stress (kbar)      0.00      0.00      0.00
                                0.00      0.00      0.00
                                0.00      0.00      0.00

     TS-vdW  stress (kbar)      0.00      0.00      0.00
                                0.00      0.00      0.00
                                0.00      0.00      0.00



     Writing output data file silicene.save/

     init_run     :      3.47s CPU      3.58s WALL (       1 calls)
     electrons    :     57.03s CPU     58.28s WALL (       1 calls)
     forces       :      1.62s CPU      1.66s WALL (       1 calls)
     stress       :      3.57s CPU      3.66s WALL (       1 calls)

     Called by init_run:
     wfcinit      :      2.00s CPU      2.02s WALL (       1 calls)
     wfcinit:atom :      0.04s CPU      0.04s WALL (      31 calls)
     wfcinit:wfcr :      1.77s CPU      1.79s WALL (      31 calls)
     potinit      :      0.39s CPU      0.40s WALL (       1 calls)
     hinit0       :      0.89s CPU      0.90s WALL (       1 calls)

     Called by electrons:
     c_bands      :     44.90s CPU     45.23s WALL (      10 calls)
     sum_band     :      9.45s CPU     10.17s WALL (      10 calls)
     v_of_rho     :      0.94s CPU      0.96s WALL (      10 calls)
     v_h          :      0.08s CPU      0.08s WALL (      10 calls)
     v_xc         :      1.15s CPU      1.16s WALL (      12 calls)
     newd         :      1.73s CPU      1.97s WALL (      10 calls)
     mix_rho      :      0.17s CPU      0.19s WALL (      10 calls)

     Called by c_bands:
     init_us_2    :      1.48s CPU      1.49s WALL (     713 calls)
     cegterg      :     40.39s CPU     40.69s WALL (     310 calls)

     Called by sum_band:
     sum_band:bec :      0.01s CPU      0.01s WALL (     310 calls)
     addusdens    :      2.03s CPU      2.74s WALL (      10 calls)

     Called by *egterg:
     h_psi        :     34.11s CPU     34.33s WALL (    1201 calls)
     s_psi        :      3.25s CPU      3.28s WALL (    1201 calls)
     g_psi        :      0.20s CPU      0.23s WALL (     860 calls)
     cdiaghg      :      0.16s CPU      0.16s WALL (    1139 calls)
     cegterg:over :      1.70s CPU      1.72s WALL (     860 calls)
     cegterg:upda :      1.18s CPU      1.19s WALL (     860 calls)
     cegterg:last :      0.63s CPU      0.64s WALL (     312 calls)

     Called by h_psi:
     h_psi:pot    :     34.00s CPU     34.21s WALL (    1201 calls)
     h_psi:calbec :      3.34s CPU      3.39s WALL (    1201 calls)
     vloc_psi     :     27.47s CPU     27.63s WALL (    1201 calls)
     add_vuspsi   :      3.17s CPU      3.18s WALL (    1201 calls)

     General routines
     calbec       :      5.24s CPU      5.30s WALL (    1666 calls)
     fft          :      0.82s CPU      0.82s WALL (     154 calls)
     ffts         :      0.07s CPU      0.07s WALL (      20 calls)
     fftw         :     28.44s CPU     28.62s WALL (   15708 calls)
     interpolate  :      0.08s CPU      0.08s WALL (      10 calls)

     Parallel routines

     PWSCF        :   1m 6.52s CPU   1m 8.05s WALL


   This run was terminated on:   0:51:17  23Sep2023            

=------------------------------------------------------------------------------=
   JOB DONE.
=------------------------------------------------------------------------------=
